                         Program Version 6.1.0  -  RELEASE   -
|  1> ! B3LYP def2-TZVP RIJCOSX def2/J TightSCF CPCM(Water)
|  2>
|  3> %pal
|  4>   nprocs 20
|  5> end
|  6>
|  7> %scf
|  8>   MaxIter   1000
|  9> end
| 10>
| 11> %output
| 12>   XYZFile true
| 13> end
| 14>
| 15> %TDDFT
| 16>    NROOTS   5
| 17> end
| 18>
| 19> * xyz 0 1
| 20>   C          -0.02944983368378     -1.85921037165536      0.00360216718185
| 21>   C           0.03315596024693     -1.12185825794863      1.17999507942510
| 22>   C           0.10043785932372      0.26358159655638      1.11908854459987
| 23>   C           0.10693973908754      0.93732968397298     -0.10607138917940
| 24>   C           0.04356479632666      0.18536269635920     -1.27964600413135
| 25>   C          -0.02404962902780     -1.19984142264626     -1.22371817362163
| 26>   H          -0.08217745604446     -2.93904228877050      0.04924876427089
| 27>   H           0.03008514234885     -1.61307713243223      2.14405037351148
| 28>   H           0.04847101544400      0.70837755776624     -2.22787372773601
| 29>   H          -0.07277603485231     -1.76663530412321     -2.14498772151101
| 30>   O           0.17159041483246      2.28829446176539     -0.21031673685147
| 31>   H           0.21283491774628      2.68692117778965      0.67280920692612
| 32>   Cl          0.17912633825192      1.20661199336635      2.59561917711557
| 33> *
| 34>
| 35>
| 36>                          ****END OF INPUT****

CARTESIAN COORDINATES (ANGSTROEM)
---------------------------------
  C     -0.029450   -1.859210    0.003602
  C      0.033156   -1.121858    1.179995
  C      0.100438    0.263582    1.119089
  C      0.106940    0.937330   -0.106071
  C      0.043565    0.185363   -1.279646
  C     -0.024050   -1.199841   -1.223718
  H     -0.082177   -2.939042    0.049249
  H      0.030085   -1.613077    2.144050
  H      0.048471    0.708378   -2.227874
  H     -0.072776   -1.766635   -2.144988
  O      0.171590    2.288294   -0.210317
  H      0.212835    2.686921    0.672809
  Cl     0.179126    1.206612    2.595619

 Total Charge           Charge          ....    0
 Multiplicity           Mult            ....    1
 Number of Electrons    NEL             ....   66
 Basis Dimension        Dim             ....  284

ORBITAL ENERGIES
----------------

  NO   OCC          E(Eh)            E(eV)
   0   2.0000    -101.537052     -2762.9637
   1   2.0000     -19.164343      -521.4883
   2   2.0000     -10.249686      -278.9081
   3   2.0000     -10.235815      -278.5307
   4   2.0000     -10.186832      -277.1978
   5   2.0000     -10.180434      -277.0237
   6   2.0000     -10.178414      -276.9687
   7   2.0000     -10.175472      -276.8887
   8   2.0000      -9.469030      -257.6654
   9   2.0000      -7.230330      -196.7473
  10   2.0000      -7.222084      -196.5229
  11   2.0000      -7.222070      -196.5225
  12   2.0000      -1.073476       -29.2108
  13   2.0000      -0.892393       -24.2833
  14   2.0000      -0.843164       -22.9437
  15   2.0000      -0.755441       -20.5566
  16   2.0000      -0.735976       -20.0269
  17   2.0000      -0.625979       -17.0337
  18   2.0000      -0.618213       -16.8224
  19   2.0000      -0.553548       -15.0628
  20   2.0000      -0.508658       -13.8413
  21   2.0000      -0.479790       -13.0557
  22   2.0000      -0.449708       -12.2372
  23   2.0000      -0.434843       -11.8327
  24   2.0000      -0.434141       -11.8136
  25   2.0000      -0.404013       -10.9937
  26   2.0000      -0.379348       -10.3226
  27   2.0000      -0.367157        -9.9908
  28   2.0000      -0.355442        -9.6721
  29   2.0000      -0.340579        -9.2676
  30   2.0000      -0.328870        -8.9490
  31   2.0000      -0.259271        -7.0551
  32   2.0000      -0.236210        -6.4276
  33   0.0000      -0.023745        -0.6461
  34   0.0000      -0.007620        -0.2073
  35   0.0000       0.017310         0.4710
  36   0.0000       0.055567         1.5121
  37   0.0000       0.073530         2.0008

MULLIKEN ATOMIC CHARGES
-----------------------
   0 C :   -0.160602
   1 C :   -0.184154
   2 C :    0.111272
   3 C :    0.199948
   4 C :   -0.218355
   5 C :   -0.127124
   6 H :    0.145812
   7 H :    0.154797
   8 H :    0.142371
   9 H :    0.147019
  10 O :   -0.416385
  11 H :    0.345352
  12 Cl:   -0.139950
Sum of atomic charges:   -0.0000000

LOEWDIN ATOMIC CHARGES
----------------------
   0 C :   -0.154171
   1 C :   -0.144831
   2 C :   -0.409956
   3 C :   -0.287803
   4 C :   -0.121167
   5 C :   -0.138456
   6 H :    0.151236
   7 H :    0.155390
   8 H :    0.155890
   9 H :    0.152758
  10 O :    0.080465
  11 H :    0.189623
  12 Cl:    0.371023

  Mayer bond orders larger than 0.100000
B(  0-C ,  1-C ) :   1.4000 B(  0-C ,  5-C ) :   1.3823 B(  0-C ,  6-H ) :   0.9714
B(  1-C ,  2-C ) :   1.3184 B(  1-C ,  7-H ) :   0.9621 B(  2-C ,  3-C ) :   1.2667
B(  2-C , 12-Cl) :   0.9356 B(  3-C ,  4-C ) :   1.3562 B(  3-C , 10-O ) :   1.1872
B(  4-C ,  5-C ) :   1.4224 B(  4-C ,  8-H ) :   0.9729 B(  5-C ,  9-H ) :   0.9723
B( 10-O , 11-H ) :   0.8403

----------------------------------------------------------------------------------------------------
                     ABSORPTION SPECTRUM VIA TRANSITION ELECTRIC DIPOLE MOMENTS
----------------------------------------------------------------------------------------------------
     Transition      Energy     Energy  Wavelength fosc(D2)      D2        DX        DY        DZ
                      (eV)      (cm-1)    (nm)                 (au**2)    (au)      (au)      (au)
----------------------------------------------------------------------------------------------------
  0-1A  ->  1-1A    5.043758   40680.7   245.8   0.059665790   0.48285   0.02463   0.20134   0.66461
  0-1A  ->  2-1A    5.784644   46656.3   214.3   0.000751977   0.00531  -0.07271   0.00432   0.00042
  0-1A  ->  3-1A    5.928270   47814.7   209.1   0.025263014   0.17394   0.00078  -0.15670   0.38650
  0-1A  ->  4-1A    6.411316   51710.8   193.4   0.000001423   0.00001  -0.00026   0.00291   0.00070
  0-1A  ->  5-1A    6.767369   54582.5   183.2   0.625764160   3.77427  -0.03479  -1.33819   1.40795

FINAL SINGLE POINT ENERGY      -766.795564343994

DIPOLE MOMENT
-------------

Method             : SCF
Type of density    : Electron Density
Multiplicity       :   1
Irrep              :   0
Energy             :  -766.9809190467701683 Eh
Basis              : AO
                                X                 Y                 Z
Electronic contribution:      0.404559777       5.025909216       7.095044661
Nuclear contribution   :     -0.423921506      -5.450143520      -7.083989479
                        -----------------------------------------
Total Dipole Moment    :     -0.019361729      -0.424234304       0.011055183
                        -----------------------------------------
Magnitude (a.u.)       :      0.424819772
Magnitude (Debye)      :      1.079806046

Rotational constants in cm-1:             0.099288             0.051110             0.033741
Rotational constants in MHz :          2976.572638          1532.242839          1011.536699

                             ****ORCA TERMINATED NORMALLY****
TOTAL RUN TIME: 0 days 0 hours 0 minutes 35 seconds 904 msec
