                         Program Version 6.1.0  -  RELEASE   -
|  1> ! B3LYP def2-TZVP RIJCOSX def2/J TightSCF
|  2>
|  3> %pal
|  4>   nprocs 20
|  5> end
|  6>
|  7> %scf
|  8>   MaxIter   1000
|  9> end
| 10>
| 11> %tddft
| 12>   nroots 5
| 13> end
| 14>
| 15> * xyz 0 1
| 16>   C          -0.02904836257109     -1.85738392100120      0.00338367508862
| 17>   C           0.03302932915170     -1.12043435725630      1.17865917978902
| 18>   C           0.09999694447045      0.26400216001210      1.11648653748497
| 19>   C           0.10656028248081      0.93685521534513     -0.10833761746467
| 20>   C           0.04380020380713      0.18506230019510     -1.28116709560653
| 21>   C          -0.02339061513477     -1.19863109693287     -1.22330368661293
| 22>   H          -0.08150356334770     -2.93700289612268      0.04847429473717
| 23>   H           0.02995586378788     -1.60810223321604      2.14414062471363
| 24>   H           0.04920782987183      0.71272820710226     -2.22606223782738
| 25>   H          -0.07171466928826     -1.76673547388581     -2.14360326165331
| 26>   O           0.17091776628649      2.28648099400261     -0.20758021445524
| 27>   H           0.21152490930183      2.66572558609439      0.68246197900469
| 28>   Cl          0.17841731118370      1.21424990566332      2.58824738280195
| 29> *
| 30>
| 31>
| 32>                          ****END OF INPUT****

CARTESIAN COORDINATES (ANGSTROEM)
---------------------------------
  C     -0.029048   -1.857384    0.003384
  C      0.033029   -1.120434    1.178659
  C      0.099997    0.264002    1.116487
  C      0.106560    0.936855   -0.108338
  C      0.043800    0.185062   -1.281167
  C     -0.023391   -1.198631   -1.223304
  H     -0.081504   -2.937003    0.048474
  H      0.029956   -1.608102    2.144141
  H      0.049208    0.712728   -2.226062
  H     -0.071715   -1.766735   -2.143603
  O      0.170918    2.286481   -0.207580
  H      0.211525    2.665726    0.682462
  Cl     0.178417    1.214250    2.588247

 Total Charge           Charge          ....    0
 Multiplicity           Mult            ....    1
 Number of Electrons    NEL             ....   66
 Basis Dimension        Dim             ....  284

ORBITAL ENERGIES
----------------

  NO   OCC          E(Eh)            E(eV)
   0   2.0000    -101.539743     -2763.0369
   1   2.0000     -19.165412      -521.5174
   2   2.0000     -10.250690      -278.9355
   3   2.0000     -10.237521      -278.5771
   4   2.0000     -10.190760      -277.3047
   5   2.0000     -10.184464      -277.1334
   6   2.0000     -10.181159      -277.0434
   7   2.0000     -10.179735      -277.0047
   8   2.0000      -9.471707      -257.7383
   9   2.0000      -7.232988      -196.8196
  10   2.0000      -7.224844      -196.5980
  11   2.0000      -7.224686      -196.5937
  12   2.0000      -1.076273       -29.2869
  13   2.0000      -0.894845       -24.3500
  14   2.0000      -0.846167       -23.0254
  15   2.0000      -0.758608       -20.6428
  16   2.0000      -0.738991       -20.1090
  17   2.0000      -0.629258       -17.1230
  18   2.0000      -0.621535       -16.9128
  19   2.0000      -0.557328       -15.1657
  20   2.0000      -0.513191       -13.9646
  21   2.0000      -0.483289       -13.1510
  22   2.0000      -0.454314       -12.3625
  23   2.0000      -0.438584       -11.9345
  24   2.0000      -0.435614       -11.8537
  25   2.0000      -0.406249       -11.0546
  26   2.0000      -0.384251       -10.4560
  27   2.0000      -0.367767       -10.0074
  28   2.0000      -0.359192        -9.7741
  29   2.0000      -0.342204        -9.3118
  30   2.0000      -0.332497        -9.0477
  31   2.0000      -0.260953        -7.1009
  32   2.0000      -0.237014        -6.4495
  33   0.0000      -0.025361        -0.6901
  34   0.0000      -0.008887        -0.2418
  35   0.0000       0.013180         0.3586
  36   0.0000       0.045194         1.2298
  37   0.0000       0.062438         1.6990

MULLIKEN ATOMIC CHARGES
-----------------------
   0 C :   -0.123009
   1 C :   -0.162774
   2 C :    0.127840
   3 C :    0.179174
   4 C :   -0.187232
   5 C :   -0.090157
   6 H :    0.111046
   7 H :    0.124434
   8 H :    0.117732
   9 H :    0.112450
  10 O :   -0.378424
  11 H :    0.307876
  12 Cl:   -0.138957
Sum of atomic charges:   -0.0000000

LOEWDIN ATOMIC CHARGES
----------------------
   0 C :   -0.150940
   1 C :   -0.143260
   2 C :   -0.405771
   3 C :   -0.283061
   4 C :   -0.113564
   5 C :   -0.135154
   6 H :    0.143589
   7 H :    0.147772
   8 H :    0.150613
   9 H :    0.145019
  10 O :    0.094626
  11 H :    0.175158
  12 Cl:    0.374974

  Mayer bond orders larger than 0.100000
B(  0-C ,  1-C ) :   1.4147 B(  0-C ,  5-C ) :   1.4000 B(  0-C ,  6-H ) :   0.9679
B(  1-C ,  2-C ) :   1.3422 B(  1-C ,  7-H ) :   0.9586 B(  2-C ,  3-C ) :   1.2728
B(  2-C , 12-Cl) :   0.9049 B(  3-C ,  4-C ) :   1.3822 B(  3-C , 10-O ) :   1.1991
B(  4-C ,  5-C ) :   1.4348 B(  4-C ,  8-H ) :   0.9655 B(  5-C ,  9-H ) :   0.9698
B( 10-O , 11-H ) :   0.8570

----------------------------------------------------------------------------------------------------
                     ABSORPTION SPECTRUM VIA TRANSITION ELECTRIC DIPOLE MOMENTS
----------------------------------------------------------------------------------------------------
     Transition      Energy     Energy  Wavelength fosc(D2)      D2        DX        DY        DZ
                      (eV)      (cm-1)    (nm)                 (au**2)    (au)      (au)      (au)
----------------------------------------------------------------------------------------------------
  0-1A  ->  1-1A    5.058013   40795.6   245.1   0.042446081   0.34253  -0.02067  -0.17302  -0.55872
  0-1A  ->  2-1A    5.710124   46055.3   217.1   0.000545334   0.00390  -0.06233   0.00346   0.00096
  0-1A  ->  3-1A    5.964206   48104.6   207.9   0.018337688   0.12550  -0.00045   0.13739  -0.32653
  0-1A  ->  4-1A    6.353458   51244.1   195.1   0.000000362   0.00000  -0.00026  -0.00150  -0.00016
  0-1A  ->  5-1A    6.671870   53812.3   185.8   0.000796046   0.00487   0.06967  -0.00238  -0.00328

FINAL SINGLE POINT ENERGY      -766.788171746764

DIPOLE MOMENT
-------------

Method             : SCF
Type of density    : Electron Density
Multiplicity       :   1
Irrep              :   0
Energy             :  -766.9740503143543719 Eh
Basis              : AO
                                X                 Y                 Z
Electronic contribution:      0.405514400       5.132236152       7.056037560
Nuclear contribution   :     -0.421208509      -5.477092884      -7.054904570
                        -----------------------------------------
Total Dipole Moment    :     -0.015694109      -0.344856732       0.001132991
                        -----------------------------------------
Magnitude (a.u.)       :      0.345215519
Magnitude (Debye)      :      0.877468115

Rotational constants in cm-1:             0.099746             0.051150             0.033811
Rotational constants in MHz :          2990.296193          1533.424605          1013.633281

                             ****ORCA TERMINATED NORMALLY****
TOTAL RUN TIME: 0 days 0 hours 0 minutes 19 seconds 341 msec
