                         Program Version 6.1.0  -  RELEASE   -
|  1> ! PBE def2-TZVP RIJCOSX def2/J TightSCF CPCM(Water)
|  2>
|  3> %pal
|  4>   nprocs 20
|  5> end
|  6>
|  7> %scf
|  8>   MaxIter   1000
|  9> end
| 10>
| 11> %output
| 12>   XYZFile true
| 13> end
| 14>
| 15> %TDDFT
| 16>    NROOTS   5
| 17> end
| 18>
| 19> * xyz 0 1
| 20>   C          -0.02820094457066     -1.86458052949821      0.00313880553330
| 21>   C           0.03608384002309     -1.12429333093336      1.18563004253782
| 22>   C           0.10234808222949      0.26670103812094      1.12255280164908
| 23>   C           0.10593422658433      0.94569393826307     -0.10960220396164
| 24>   C           0.04093348113274      0.18887178986998     -1.28782188401998
| 25>   C          -0.02547122291563     -1.20267510055144     -1.22963761243888
| 26>   H          -0.08027234730821     -2.95288359017076      0.05007772990019
| 27>   H           0.03533502878072     -1.61781488508576      2.15820526747317
| 28>   H           0.04368488773390      0.71596602658619     -2.24363318360484
| 29>   H          -0.07553605410830     -1.77421741960631     -2.15789946395471
| 30>   O           0.16956155168218      2.30035543485021     -0.20618997702223
| 31>   H           0.20908408686367      2.67578222149621      0.69921784011598
| 32>   Cl          0.18426861387267      1.21990879665926      2.58776139779274
| 33> *
| 34>
| 35>
| 36>                          ****END OF INPUT****

CARTESIAN COORDINATES (ANGSTROEM)
---------------------------------
  C     -0.028201   -1.864581    0.003139
  C      0.036084   -1.124293    1.185630
  C      0.102348    0.266701    1.122553
  C      0.105934    0.945694   -0.109602
  C      0.040933    0.188872   -1.287822
  C     -0.025471   -1.202675   -1.229638
  H     -0.080272   -2.952884    0.050078
  H      0.035335   -1.617815    2.158205
  H      0.043685    0.715966   -2.243633
  H     -0.075536   -1.774217   -2.157899
  O      0.169562    2.300355   -0.206190
  H      0.209084    2.675782    0.699218
  Cl     0.184269    1.219909    2.587761

 Total Charge           Charge          ....    0
 Multiplicity           Mult            ....    1
 Number of Electrons    NEL             ....   66
 Basis Dimension        Dim             ....  284

ORBITAL ENERGIES
----------------

  NO   OCC          E(Eh)            E(eV)
   0   2.0000    -100.677463     -2739.5731
   1   2.0000     -18.791214      -511.3349
   2   2.0000      -9.960515      -271.0394
   3   2.0000      -9.949543      -270.7408
   4   2.0000      -9.900751      -269.4131
   5   2.0000      -9.894455      -269.2418
   6   2.0000      -9.893419      -269.2136
   7   2.0000      -9.890374      -269.1308
   8   2.0000      -9.190960      -250.0987
   9   2.0000      -7.014117      -190.8638
  10   2.0000      -7.004206      -190.5941
  11   2.0000      -7.004204      -190.5941
  12   2.0000      -0.985052       -26.8046
  13   2.0000      -0.816854       -22.2277
  14   2.0000      -0.768542       -20.9131
  15   2.0000      -0.683744       -18.6056
  16   2.0000      -0.665902       -18.1201
  17   2.0000      -0.565523       -15.3887
  18   2.0000      -0.556914       -15.1544
  19   2.0000      -0.499645       -13.5960
  20   2.0000      -0.456986       -12.4352
  21   2.0000      -0.429609       -11.6902
  22   2.0000      -0.401966       -10.9381
  23   2.0000      -0.387677       -10.5492
  24   2.0000      -0.387423       -10.5423
  25   2.0000      -0.355079        -9.6622
  26   2.0000      -0.334225        -9.0947
  27   2.0000      -0.324003        -8.8166
  28   2.0000      -0.310455        -8.4479
  29   2.0000      -0.303067        -8.2469
  30   2.0000      -0.289989        -7.8910
  31   2.0000      -0.232268        -6.3203
  32   2.0000      -0.208195        -5.6653
  33   0.0000      -0.053745        -1.4625
  34   0.0000      -0.038648        -1.0517
  35   0.0000      -0.017707        -0.4818
  36   0.0000       0.030447         0.8285
  37   0.0000       0.049571         1.3489

MULLIKEN ATOMIC CHARGES
-----------------------
   0 C :   -0.155951
   1 C :   -0.196066
   2 C :    0.126151
   3 C :    0.159821
   4 C :   -0.224838
   5 C :   -0.125888
   6 H :    0.141378
   7 H :    0.149440
   8 H :    0.135798
   9 H :    0.141015
  10 O :   -0.356574
  11 H :    0.335909
  12 Cl:   -0.130194
Sum of atomic charges:   -0.0000000

LOEWDIN ATOMIC CHARGES
----------------------
   0 C :   -0.159013
   1 C :   -0.151207
   2 C :   -0.422312
   3 C :   -0.300310
   4 C :   -0.125926
   5 C :   -0.146100
   6 H :    0.154558
   7 H :    0.158653
   8 H :    0.159166
   9 H :    0.155752
  10 O :    0.096698
  11 H :    0.192073
  12 Cl:    0.387967

  Mayer bond orders larger than 0.100000
B(  0-C ,  1-C ) :   1.3994 B(  0-C ,  5-C ) :   1.3818 B(  0-C ,  6-H ) :   0.9634
B(  1-C ,  2-C ) :   1.3162 B(  1-C ,  7-H ) :   0.9573 B(  2-C ,  3-C ) :   1.2344
B(  2-C , 12-Cl) :   0.9314 B(  3-C ,  4-C ) :   1.3567 B(  3-C , 10-O ) :   1.2397
B(  4-C ,  5-C ) :   1.4258 B(  4-C ,  8-H ) :   0.9673 B(  5-C ,  9-H ) :   0.9664
B( 10-O , 11-H ) :   0.8329

----------------------------------------------------------------------------------------------------
                     ABSORPTION SPECTRUM VIA TRANSITION ELECTRIC DIPOLE MOMENTS
----------------------------------------------------------------------------------------------------
     Transition      Energy     Energy  Wavelength fosc(D2)      D2        DX        DY        DZ
                      (eV)      (cm-1)    (nm)                 (au**2)    (au)      (au)      (au)
----------------------------------------------------------------------------------------------------
  0-1A  ->  1-1A    4.715039   38029.4   263.0   0.055431198   0.47986  -0.02686  -0.23319  -0.65173
  0-1A  ->  2-1A    5.283557   42614.8   234.7   0.000448573   0.00347  -0.05881   0.00222   0.00154
  0-1A  ->  3-1A    5.673404   45759.1   218.5   0.046839397   0.33698  -0.00455   0.18480  -0.55029
  0-1A  ->  4-1A    5.957958   48054.2   208.1   0.000051608   0.00035  -0.01863   0.00245   0.00078
  0-1A  ->  5-1A    6.301056   50821.4   196.8   0.344844517   2.23384   0.00096  -0.64113   1.35011

FINAL SINGLE POINT ENERGY      -766.477758083540

DIPOLE MOMENT
-------------

Method             : SCF
Type of density    : Electron Density
Multiplicity       :   1
Irrep              :   0
Energy             :  -766.6510325802147463 Eh
Basis              : AO
                                X                 Y                 Z
Electronic contribution:      0.423046975       5.170791027       7.109299953
Nuclear contribution   :     -0.438873919      -5.513653657      -7.053396058
                        -----------------------------------------
Total Dipole Moment    :     -0.015826944      -0.342862629       0.055903896
                        -----------------------------------------
Magnitude (a.u.)       :      0.347750658
Magnitude (Debye)      :      0.883911928

Rotational constants in cm-1:             0.098881             0.050890             0.033598
Rotational constants in MHz :          2964.383175          1525.654365          1007.257541

                             ****ORCA TERMINATED NORMALLY****
TOTAL RUN TIME: 0 days 0 hours 0 minutes 21 seconds 964 msec
