                         Program Version 6.1.0  -  RELEASE   -
|  1> ! PBE def2-TZVP RIJCOSX def2/J TightSCF
|  2>
|  3> %pal
|  4>   nprocs 20
|  5> end
|  6>
|  7> %scf
|  8>   MaxIter   1000
|  9> end
| 10>
| 11> %output
| 12>   Print[P_Mulliken] 1
| 13>   Print[P_Loewdin] 1
| 14>   XYZFile true
| 15> end
| 16>
| 17> %TDDFT
| 18>    NROOTS   5
| 19> end
| 20>
| 21> * xyz 0 1
| 22>   C          -0.02705787609866     -1.86214696269581      0.00303940578589
| 23>   C           0.03672413175970     -1.12207944830625      1.18452828982354
| 24>   C           0.10189003312396      0.26742709525885      1.11907508485244
| 25>   C           0.10523317097478      0.94535396738549     -0.11295521784673
| 26>   C           0.04059217369851      0.18884311285097     -1.28982267998135
| 27>   C          -0.02489572969630     -1.20139202998021     -1.22905064940789
| 28>   H          -0.07823544512947     -2.95017150441283      0.04955521586775
| 29>   H           0.03636137530936     -1.61280542937935      2.15801962040412
| 30>   H           0.04308340874814      0.71862655355416     -2.24331335247240
| 31>   H          -0.07482518183562     -1.77461379360371     -2.15597211087877
| 32>   O           0.16842493664599      2.29923635838905     -0.20207325970617
| 33>   H           0.20776053547834      2.64997833976228      0.71232906940613
| 34>   Cl          0.18269769702125      1.23055813117735      2.57844014415343
| 35> *
| 36>
| 37>
| 38>                          ****END OF INPUT****

CARTESIAN COORDINATES (ANGSTROEM)
---------------------------------
  C     -0.027058   -1.862147    0.003039
  C      0.036724   -1.122079    1.184528
  C      0.101890    0.267427    1.119075
  C      0.105233    0.945354   -0.112955
  C      0.040592    0.188843   -1.289823
  C     -0.024896   -1.201392   -1.229051
  H     -0.078235   -2.950172    0.049555
  H      0.036361   -1.612805    2.158020
  H      0.043083    0.718627   -2.243313
  H     -0.074825   -1.774614   -2.155972
  O      0.168425    2.299236   -0.202073
  H      0.207761    2.649978    0.712329
  Cl     0.182698    1.230558    2.578440

 Total Charge           Charge          ....    0
 Multiplicity           Mult            ....    1
 Number of Electrons    NEL             ....   66
 Basis Dimension        Dim             ....  284

ORBITAL ENERGIES
----------------

  NO   OCC          E(Eh)            E(eV)
   0   2.0000    -100.680690     -2739.6609
   1   2.0000     -18.792180      -511.3612
   2   2.0000      -9.961071      -271.0545
   3   2.0000      -9.950954      -270.7792
   4   2.0000      -9.904124      -269.5049
   5   2.0000      -9.897744      -269.3313
   6   2.0000      -9.895589      -269.2727
   7   2.0000      -9.893903      -269.2268
   8   2.0000      -9.194168      -250.1860
   9   2.0000      -7.017280      -190.9499
  10   2.0000      -7.007544      -190.6850
  11   2.0000      -7.007333      -190.6792
  12   2.0000      -0.987621       -26.8745
  13   2.0000      -0.819215       -22.2920
  14   2.0000      -0.771272       -20.9874
  15   2.0000      -0.686397       -18.6778
  16   2.0000      -0.668503       -18.1909
  17   2.0000      -0.568315       -15.4646
  18   2.0000      -0.559675       -15.2295
  19   2.0000      -0.502983       -13.6869
  20   2.0000      -0.461274       -12.5519
  21   2.0000      -0.432592       -11.7714
  22   2.0000      -0.406091       -11.0503
  23   2.0000      -0.391813       -10.6618
  24   2.0000      -0.388161       -10.5624
  25   2.0000      -0.357474        -9.7274
  26   2.0000      -0.338653        -9.2152
  27   2.0000      -0.324519        -8.8306
  28   2.0000      -0.313821        -8.5395
  29   2.0000      -0.304242        -8.2789
  30   2.0000      -0.294225        -8.0063
  31   2.0000      -0.233406        -6.3513
  32   2.0000      -0.208568        -5.6754
  33   0.0000      -0.054749        -1.4898
  34   0.0000      -0.039299        -1.0694
  35   0.0000      -0.021623        -0.5884
  36   0.0000       0.020359         0.5540
  37   0.0000       0.038787         1.0554

MULLIKEN ATOMIC CHARGES
-----------------------
   0 C :   -0.116421
   1 C :   -0.172710
   2 C :    0.146315
   3 C :    0.141952
   4 C :   -0.192833
   5 C :   -0.086829
   6 H :    0.105217
   7 H :    0.117322
   8 H :    0.108920
   9 H :    0.105097
  10 O :   -0.321493
  11 H :    0.297421
  12 Cl:   -0.131956
Sum of atomic charges:    0.0000000

LOEWDIN ATOMIC CHARGES
----------------------
   0 C :   -0.154545
   1 C :   -0.148731
   2 C :   -0.416685
   3 C :   -0.295106
   4 C :   -0.118055
   5 C :   -0.141365
   6 H :    0.146679
   7 H :    0.150679
   8 H :    0.153336
   9 H :    0.147839
  10 O :    0.109024
  11 H :    0.176823
  12 Cl:    0.390106

  Mayer bond orders larger than 0.100000
B(  0-C ,  1-C ) :   1.4126 B(  0-C ,  5-C ) :   1.4005 B(  0-C ,  6-H ) :   0.9597
B(  1-C ,  2-C ) :   1.3401 B(  1-C ,  7-H ) :   0.9536 B(  2-C ,  3-C ) :   1.2397
B(  2-C , 12-Cl) :   0.8940 B(  3-C ,  4-C ) :   1.3836 B(  3-C , 10-O ) :   1.2463
B(  3-C , 12-Cl) :   0.1009 B(  4-C ,  5-C ) :   1.4377 B(  4-C ,  8-H ) :   0.9596
B(  5-C ,  9-H ) :   0.9636 B( 10-O , 11-H ) :   0.8473

----------------------------------------------------------------------------------------------------
                     ABSORPTION SPECTRUM VIA TRANSITION ELECTRIC DIPOLE MOMENTS
----------------------------------------------------------------------------------------------------
     Transition      Energy     Energy  Wavelength fosc(D2)      D2        DX        DY        DZ
                      (eV)      (cm-1)    (nm)                 (au**2)    (au)      (au)      (au)
----------------------------------------------------------------------------------------------------
  0-1A  ->  1-1A    4.732544   38170.5   262.0   0.039296495   0.33892   0.02232   0.19373   0.54854
  0-1A  ->  2-1A    5.187380   41839.0   239.0   0.000330810   0.00260   0.05093  -0.00284  -0.00112
  0-1A  ->  3-1A    5.711095   46063.1   217.1   0.030503763   0.21801   0.00319  -0.15633   0.43995
  0-1A  ->  4-1A    5.882964   47449.3   210.8   0.000034233   0.00024   0.01541  -0.00018  -0.00012
  0-1A  ->  5-1A    6.285759   50698.1   197.2   0.000614863   0.00399   0.06310  -0.00288  -0.00174

FINAL SINGLE POINT ENERGY      -766.470452513422

DIPOLE MOMENT
-------------

Method             : SCF
Type of density    : Electron Density
Multiplicity       :   1
Irrep              :   0
Energy             :  -766.6443703257393736 Eh
Basis              : AO
                                X                 Y                 Z
Electronic contribution:      0.420456662       5.260620634       7.053526294
Nuclear contribution   :     -0.433433103      -5.553772295      -7.017574888
                        -----------------------------------------
Total Dipole Moment    :     -0.012976441      -0.293151662       0.035951406
                        -----------------------------------------
Magnitude (a.u.)       :      0.295632861
Magnitude (Debye)      :      0.751439014

Rotational constants in cm-1:             0.099443             0.050921             0.033677
Rotational constants in MHz :          2981.236606          1526.584812          1009.603131

                             ****ORCA TERMINATED NORMALLY****
TOTAL RUN TIME: 0 days 0 hours 0 minutes 10 seconds 322 msec
