                         Program Version 6.1.0  -  RELEASE   -
|  1> ! UKS BP86 RIJCOSX ZORA ZORA-def2-SVP SARC/J TightSCF
|  2>
|  3> %pal
|  4>   nprocs 16
|  5> end
|  6>
|  7> %maxcore 1000
|  8>
|  9> %scf
| 10> FlipSpin 0
| 11> FinalMs 0
| 12> MaxIter 300
| 13> end
| 14>
| 15> * xyzfile -2 3 Cu2_for_5_BSDFT.xyz
| 16>
| 17>
| 18>                          ****END OF INPUT****

CARTESIAN COORDINATES (ANGSTROEM)
---------------------------------
  Cu     0.141181   -1.336905    0.234754
  O      1.853907   -0.798371    1.051912
  O     -1.617100   -1.409633   -0.682009
  O      0.979405   -1.292850   -1.557639
  O     -0.742003   -0.918471    1.949698
  O      0.308678   -3.400068    0.455636
  O      2.751666   -3.977012    1.815800
  C      2.185509    0.398030    1.131865
  C      3.460615    0.653748    1.941991
  C      1.067687   -0.260173   -2.235795
  C      1.618931   -0.442209   -3.659536
  C      0.382102   -4.233983    1.604840
  H      0.517910   -5.173228    1.322596
  H     -0.471544   -4.183907    2.102861
  C      1.515268   -3.812630    2.506479
  H      1.400268   -2.864765    2.769457
  H      1.513584   -4.364609    3.328165
  C      3.910544   -3.547910    2.558497
  H      3.726181   -2.667977    2.997756
  C      4.270062   -4.575455    3.600776
  H      3.535049   -4.659721    4.244253
  H      5.083192   -4.295457    4.069898
  H      4.424234   -5.440441    3.167295
  C      5.035233   -3.395380    1.539336
  H      4.778069   -2.728796    0.866960
  H      5.197143   -4.256218    1.100076
  H      5.851067   -3.101363    1.994972
  F      3.309933    0.210081    3.176928
  F      3.764557    1.920071    2.010385
  F      4.487126   -0.009151    1.460347
  F      0.626331   -0.649220   -4.492782
  F      2.297897    0.595009   -4.078567
  F      2.422470   -1.493916   -3.738526
  Cu    -0.141181    1.336905   -0.234754
  O     -1.853907    0.798371   -1.051912
  O      1.617100    1.409633    0.682009
  O     -0.979405    1.292850    1.557639
  O      0.742003    0.918471   -1.949698
  O     -0.308678    3.400068   -0.455636
  O     -2.751666    3.977012   -1.815800
  C     -2.185509   -0.398030   -1.131865
  C     -3.460615   -0.653748   -1.941991
  C     -1.067687    0.260173    2.235795
  C     -1.618931    0.442209    3.659536
  C     -0.382102    4.233983   -1.604840
  H     -0.517910    5.173228   -1.322596
  H      0.471544    4.183907   -2.102861
  C     -1.515268    3.812630   -2.506479
  H     -1.400268    2.864765   -2.769457
  H     -1.513584    4.364609   -3.328165
  C     -3.910544    3.547910   -2.558497
  H     -3.726181    2.667977   -2.997756
  C     -4.270062    4.575455   -3.600776
  H     -3.535049    4.659721   -4.244253
  H     -5.083192    4.295457   -4.069898
  H     -4.424234    5.440441   -3.167295
  C     -5.035233    3.395380   -1.539336
  H     -4.778069    2.728796   -0.866960
  H     -5.197143    4.256218   -1.100076
  H     -5.851067    3.101363   -1.994972
  F     -3.309933   -0.210081   -3.176928
  F     -3.764557   -1.920071   -2.010385
  F     -4.487126    0.009151   -1.460347
  F     -0.626331    0.649220    4.492782
  F     -2.297897   -0.595009    4.078567
  F     -2.422470    1.493916    3.738526

 Total Charge           Charge          ....   -2
 Multiplicity           Mult            ....    3
 Number of Electrons    NEL             ....  394
 Basis Dimension        Dim             ....  780

ORBITAL ENERGIES
----------------
                 SPIN UP ORBITALS
  NO   OCC          E(Eh)            E(eV)
   0   1.0000    -328.687265     -8944.0352
   1   1.0000    -328.687237     -8944.0344
   2   1.0000     -38.995887     -1061.1320
   3   1.0000     -38.984910     -1060.8333
   4   1.0000     -33.666353      -916.1080
   5   1.0000     -33.653041      -915.7458
   6   1.0000     -33.652021      -915.7180
   7   1.0000     -33.646131      -915.5578
   8   1.0000     -33.646108      -915.5571
   9   1.0000     -33.642605      -915.4618
  10   1.0000     -24.176466      -657.8751
  11   1.0000     -24.176433      -657.8742
  12   1.0000     -24.175793      -657.8568
  13   1.0000     -24.175774      -657.8563
  14   1.0000     -24.175715      -657.8547
  15   1.0000     -24.175692      -657.8540
  16   1.0000     -24.174933      -657.8334
  17   1.0000     -24.174920      -657.8330
  18   1.0000     -24.169892      -657.6962
  19   1.0000     -24.169871      -657.6956
  20   1.0000     -24.166796      -657.6119
  21   1.0000     -24.166742      -657.6105
  22   1.0000     -18.577242      -505.5125
  23   1.0000     -18.577124      -505.5092
  24   1.0000     -18.577093      -505.5084
  25   1.0000     -18.575116      -505.4546
  26   1.0000     -18.573607      -505.4135
  27   1.0000     -18.572271      -505.3772
  28   1.0000     -18.568341      -505.2702
  29   1.0000     -18.567533      -505.2483
  30   1.0000     -18.565685      -505.1980
  31   1.0000     -18.565186      -505.1844
  32   1.0000     -18.473403      -502.6868
  33   1.0000     -18.469199      -502.5724
  34   1.0000      -9.924894      -270.0701
  35   1.0000      -9.924803      -270.0676
  36   1.0000      -9.922807      -270.0133
  37   1.0000      -9.922769      -270.0123
  38   1.0000      -9.803978      -266.7798
  39   1.0000      -9.803957      -266.7792
  40   1.0000      -9.796898      -266.5871
  41   1.0000      -9.796879      -266.5866
  42   1.0000      -9.756567      -265.4897
  43   1.0000      -9.756565      -265.4896
  44   1.0000      -9.703105      -264.0349
  45   1.0000      -9.703086      -264.0344
  46   1.0000      -9.698307      -263.9043
  47   1.0000      -9.698307      -263.9043
  48   1.0000      -9.686757      -263.5901
  49   1.0000      -9.686756      -263.5900
  50   1.0000      -9.683572      -263.5034
  51   1.0000      -9.683481      -263.5009
  52   1.0000      -4.049406      -110.1899
  53   1.0000      -4.027278      -109.5878
  54   1.0000      -2.507193       -68.2242
  55   1.0000      -2.481313       -67.5199
  56   1.0000      -2.470521       -67.2263
  57   1.0000      -2.465429       -67.0877
  58   1.0000      -2.462844       -67.0174
  59   1.0000      -2.456205       -66.8367
  60   1.0000      -1.013700       -27.5842
  61   1.0000      -1.013688       -27.5838
  62   1.0000      -1.011675       -27.5291
  63   1.0000      -1.011657       -27.5286
  64   1.0000      -0.919901       -25.0318
  65   1.0000      -0.919877       -25.0311
  66   1.0000      -0.919512       -25.0212
  67   1.0000      -0.919479       -25.0203
  68   1.0000      -0.910907       -24.7870
  69   1.0000      -0.910896       -24.7867
  70   1.0000      -0.909378       -24.7454
  71   1.0000      -0.909294       -24.7432
  72   1.0000      -0.767836       -20.8939
  73   1.0000      -0.763618       -20.7791
  74   1.0000      -0.758789       -20.6477
  75   1.0000      -0.756377       -20.5821
  76   1.0000      -0.719486       -19.5782
  77   1.0000      -0.719424       -19.5765
  78   1.0000      -0.685168       -18.6444
  79   1.0000      -0.681536       -18.5455
  80   1.0000      -0.675936       -18.3932
  81   1.0000      -0.674829       -18.3630
  82   1.0000      -0.582210       -15.8428
  83   1.0000      -0.576317       -15.6824
  84   1.0000      -0.541026       -14.7221
  85   1.0000      -0.540357       -14.7039
  86   1.0000      -0.477161       -12.9842
  87   1.0000      -0.477115       -12.9830
  88   1.0000      -0.448539       -12.2054
  89   1.0000      -0.446405       -12.1473
  90   1.0000      -0.445592       -12.1252
  91   1.0000      -0.444982       -12.1086
  92   1.0000      -0.435866       -11.8605
  93   1.0000      -0.434376       -11.8200
  94   1.0000      -0.367897       -10.0110
  95   1.0000      -0.363872        -9.9015
  96   1.0000      -0.363731        -9.8976
  97   1.0000      -0.362616        -9.8673
  98   1.0000      -0.357197        -9.7198
  99   1.0000      -0.356958        -9.7133
 100   1.0000      -0.335480        -9.1289
 101   1.0000      -0.335443        -9.1279
 102   1.0000      -0.334850        -9.1117
 103   1.0000      -0.334733        -9.1085
 104   1.0000      -0.332727        -9.0540
 105   1.0000      -0.332603        -9.0506
 106   1.0000      -0.330415        -8.9910
 107   1.0000      -0.330132        -8.9833
 108   1.0000      -0.328344        -8.9347
 109   1.0000      -0.327088        -8.9005
 110   1.0000      -0.272708        -7.4208
 111   1.0000      -0.272559        -7.4167
 112   1.0000      -0.249790        -6.7971
 113   1.0000      -0.247882        -6.7452
 114   1.0000      -0.247854        -6.7445
 115   1.0000      -0.237368        -6.4591
 116   1.0000      -0.233832        -6.3629
 117   1.0000      -0.232312        -6.3215
 118   1.0000      -0.231248        -6.2926
 119   1.0000      -0.228432        -6.2160
 120   1.0000      -0.226097        -6.1524
 121   1.0000      -0.209159        -5.6915
 122   1.0000      -0.208550        -5.6749
 123   1.0000      -0.208380        -5.6703
 124   1.0000      -0.207903        -5.6573
 125   1.0000      -0.205993        -5.6054
 126   1.0000      -0.203709        -5.5432
 127   1.0000      -0.203565        -5.5393
 128   1.0000      -0.203497        -5.5374
 129   1.0000      -0.201416        -5.4808
 130   1.0000      -0.200960        -5.4684
 131   1.0000      -0.199852        -5.4382
 132   1.0000      -0.198874        -5.4116
 133   1.0000      -0.197759        -5.3813
 134   1.0000      -0.195587        -5.3222
 135   1.0000      -0.194549        -5.2940
 136   1.0000      -0.193556        -5.2669
 137   1.0000      -0.191086        -5.1997
 138   1.0000      -0.189971        -5.1694
 139   1.0000      -0.185689        -5.0529
 140   1.0000      -0.180606        -4.9145
 141   1.0000      -0.174243        -4.7414
 142   1.0000      -0.171089        -4.6556
 143   1.0000      -0.167132        -4.5479
 144   1.0000      -0.166969        -4.5435
 145   1.0000      -0.166123        -4.5204
 146   1.0000      -0.164748        -4.4830
 147   1.0000      -0.162006        -4.4084
 148   1.0000      -0.160934        -4.3792
 149   1.0000      -0.159583        -4.3425
 150   1.0000      -0.158107        -4.3023
 151   1.0000      -0.158044        -4.3006
 152   1.0000      -0.153575        -4.1790
 153   1.0000      -0.150671        -4.1000
 154   1.0000      -0.149753        -4.0750
 155   1.0000      -0.149138        -4.0583
 156   1.0000      -0.145123        -3.9490
 157   1.0000      -0.139168        -3.7869
 158   1.0000      -0.138559        -3.7704
 159   1.0000      -0.137953        -3.7539
 160   1.0000      -0.137425        -3.7395
 161   1.0000      -0.136901        -3.7253
 162   1.0000      -0.136497        -3.7143
 163   1.0000      -0.136137        -3.7045
 164   1.0000      -0.118060        -3.2126
 165   1.0000      -0.117867        -3.2073
 166   1.0000      -0.090705        -2.4682
 167   1.0000      -0.085880        -2.3369
 168   1.0000      -0.081734        -2.2241
 169   1.0000      -0.078111        -2.1255
 170   1.0000      -0.066312        -1.8044
 171   1.0000      -0.061822        -1.6823
 172   1.0000      -0.061604        -1.6763
 173   1.0000      -0.051702        -1.4069
 174   1.0000      -0.050129        -1.3641
 175   1.0000      -0.046330        -1.2607
 176   1.0000      -0.045474        -1.2374
 177   1.0000      -0.043629        -1.1872
 178   1.0000      -0.036837        -1.0024
 179   1.0000      -0.032399        -0.8816
 180   1.0000      -0.030619        -0.8332
 181   1.0000      -0.020223        -0.5503
 182   1.0000      -0.002812        -0.0765
 183   1.0000      -0.001724        -0.0469
 184   1.0000       0.002550         0.0694
 185   1.0000       0.005824         0.1585
 186   1.0000       0.013308         0.3621
 187   1.0000       0.019260         0.5241
 188   1.0000       0.026659         0.7254
 189   1.0000       0.027546         0.7496
 190   1.0000       0.034170         0.9298
 191   1.0000       0.040777         1.1096
 192   1.0000       0.059357         1.6152
 193   1.0000       0.074892         2.0379
 194   1.0000       0.081902         2.2287
 195   1.0000       0.089993         2.4488
 196   1.0000       0.094308         2.5663
 197   0.0000       0.096737         2.6323
 198   0.0000       0.181189         4.9304
 199   0.0000       0.181281         4.9329
 200   0.0000       0.187185         5.0936
 201   0.0000       0.197280         5.3683

                 SPIN DOWN ORBITALS
  NO   OCC          E(Eh)            E(eV)
   0   1.0000    -328.687265     -8944.0352
   1   1.0000    -328.687237     -8944.0344
   2   1.0000     -38.995887     -1061.1320
   3   1.0000     -38.984910     -1060.8333
   4   1.0000     -33.666353      -916.1080
   5   1.0000     -33.653041      -915.7458
   6   1.0000     -33.652021      -915.7180
   7   1.0000     -33.646131      -915.5578
   8   1.0000     -33.646108      -915.5571
   9   1.0000     -33.642605      -915.4618
  10   1.0000     -24.176466      -657.8751
  11   1.0000     -24.176433      -657.8742
  12   1.0000     -24.175793      -657.8568
  13   1.0000     -24.175774      -657.8563
  14   1.0000     -24.175715      -657.8547
  15   1.0000     -24.175692      -657.8540
  16   1.0000     -24.174933      -657.8334
  17   1.0000     -24.174920      -657.8330
  18   1.0000     -24.169892      -657.6962
  19   1.0000     -24.169871      -657.6956
  20   1.0000     -24.166796      -657.6119
  21   1.0000     -24.166742      -657.6105
  22   1.0000     -18.577243      -505.5125
  23   1.0000     -18.577124      -505.5092
  24   1.0000     -18.577093      -505.5084
  25   1.0000     -18.575116      -505.4546
  26   1.0000     -18.573607      -505.4135
  27   1.0000     -18.572271      -505.3772
  28   1.0000     -18.568341      -505.2702
  29   1.0000     -18.567533      -505.2483
  30   1.0000     -18.565685      -505.1980
  31   1.0000     -18.565186      -505.1844
  32   1.0000     -18.473403      -502.6868
  33   1.0000     -18.469199      -502.5724
  34   1.0000      -9.924894      -270.0701
  35   1.0000      -9.924803      -270.0676
  36   1.0000      -9.922807      -270.0133
  37   1.0000      -9.922769      -270.0123
  38   1.0000      -9.803978      -266.7798
  39   1.0000      -9.803957      -266.7792
  40   1.0000      -9.796898      -266.5871
  41   1.0000      -9.796879      -266.5866
  42   1.0000      -9.756567      -265.4897
  43   1.0000      -9.756565      -265.4896
  44   1.0000      -9.703105      -264.0349
  45   1.0000      -9.703086      -264.0344
  46   1.0000      -9.698307      -263.9043
  47   1.0000      -9.698307      -263.9043
  48   1.0000      -9.686757      -263.5901
  49   1.0000      -9.686756      -263.5900
  50   1.0000      -9.683572      -263.5034
  51   1.0000      -9.683480      -263.5009
  52   1.0000      -4.049406      -110.1899
  53   1.0000      -4.027278      -109.5878
  54   1.0000      -2.507193       -68.2242
  55   1.0000      -2.481312       -67.5199
  56   1.0000      -2.470521       -67.2263
  57   1.0000      -2.465429       -67.0877
  58   1.0000      -2.462844       -67.0174
  59   1.0000      -2.456205       -66.8367
  60   1.0000      -1.013700       -27.5842
  61   1.0000      -1.013688       -27.5838
  62   1.0000      -1.011675       -27.5291
  63   1.0000      -1.011657       -27.5286
  64   1.0000      -0.919901       -25.0318
  65   1.0000      -0.919877       -25.0311
  66   1.0000      -0.919512       -25.0212
  67   1.0000      -0.919479       -25.0203
  68   1.0000      -0.910907       -24.7870
  69   1.0000      -0.910896       -24.7867
  70   1.0000      -0.909378       -24.7454
  71   1.0000      -0.909294       -24.7432
  72   1.0000      -0.767836       -20.8939
  73   1.0000      -0.763618       -20.7791
  74   1.0000      -0.758789       -20.6477
  75   1.0000      -0.756377       -20.5821
  76   1.0000      -0.719486       -19.5782
  77   1.0000      -0.719424       -19.5765
  78   1.0000      -0.685168       -18.6444
  79   1.0000      -0.681536       -18.5455
  80   1.0000      -0.675936       -18.3932
  81   1.0000      -0.674829       -18.3630
  82   1.0000      -0.582210       -15.8427
  83   1.0000      -0.576317       -15.6824
  84   1.0000      -0.541026       -14.7221
  85   1.0000      -0.540357       -14.7039
  86   1.0000      -0.477161       -12.9842
  87   1.0000      -0.477115       -12.9830
  88   1.0000      -0.448539       -12.2054
  89   1.0000      -0.446405       -12.1473
  90   1.0000      -0.445592       -12.1252
  91   1.0000      -0.444982       -12.1086
  92   1.0000      -0.435866       -11.8605
  93   1.0000      -0.434376       -11.8200
  94   1.0000      -0.367897       -10.0110
  95   1.0000      -0.363872        -9.9015
  96   1.0000      -0.363731        -9.8976
  97   1.0000      -0.362616        -9.8673
  98   1.0000      -0.357197        -9.7198
  99   1.0000      -0.356958        -9.7133
 100   1.0000      -0.335480        -9.1289
 101   1.0000      -0.335443        -9.1279
 102   1.0000      -0.334850        -9.1117
 103   1.0000      -0.334733        -9.1085
 104   1.0000      -0.332727        -9.0540
 105   1.0000      -0.332603        -9.0506
 106   1.0000      -0.330415        -8.9910
 107   1.0000      -0.330132        -8.9833
 108   1.0000      -0.328344        -8.9347
 109   1.0000      -0.327088        -8.9005
 110   1.0000      -0.272708        -7.4208
 111   1.0000      -0.272559        -7.4167
 112   1.0000      -0.249790        -6.7971
 113   1.0000      -0.247882        -6.7452
 114   1.0000      -0.247854        -6.7445
 115   1.0000      -0.237368        -6.4591
 116   1.0000      -0.233832        -6.3629
 117   1.0000      -0.232312        -6.3215
 118   1.0000      -0.231248        -6.2926
 119   1.0000      -0.228432        -6.2160
 120   1.0000      -0.226097        -6.1524
 121   1.0000      -0.209159        -5.6915
 122   1.0000      -0.208550        -5.6749
 123   1.0000      -0.208380        -5.6703
 124   1.0000      -0.207903        -5.6573
 125   1.0000      -0.205993        -5.6054
 126   1.0000      -0.203709        -5.5432
 127   1.0000      -0.203565        -5.5393
 128   1.0000      -0.203497        -5.5374
 129   1.0000      -0.201416        -5.4808
 130   1.0000      -0.200960        -5.4684
 131   1.0000      -0.199852        -5.4382
 132   1.0000      -0.198874        -5.4116
 133   1.0000      -0.197759        -5.3813
 134   1.0000      -0.195587        -5.3222
 135   1.0000      -0.194549        -5.2940
 136   1.0000      -0.193556        -5.2669
 137   1.0000      -0.191086        -5.1997
 138   1.0000      -0.189971        -5.1694
 139   1.0000      -0.185689        -5.0529
 140   1.0000      -0.180606        -4.9145
 141   1.0000      -0.174243        -4.7414
 142   1.0000      -0.171089        -4.6556
 143   1.0000      -0.167132        -4.5479
 144   1.0000      -0.166969        -4.5435
 145   1.0000      -0.166123        -4.5204
 146   1.0000      -0.164748        -4.4830
 147   1.0000      -0.162006        -4.4084
 148   1.0000      -0.160934        -4.3792
 149   1.0000      -0.159583        -4.3425
 150   1.0000      -0.158107        -4.3023
 151   1.0000      -0.158044        -4.3006
 152   1.0000      -0.153575        -4.1790
 153   1.0000      -0.150671        -4.1000
 154   1.0000      -0.149753        -4.0750
 155   1.0000      -0.149138        -4.0583
 156   1.0000      -0.145123        -3.9490
 157   1.0000      -0.139168        -3.7869
 158   1.0000      -0.138559        -3.7704
 159   1.0000      -0.137953        -3.7539
 160   1.0000      -0.137425        -3.7395
 161   1.0000      -0.136901        -3.7253
 162   1.0000      -0.136497        -3.7143
 163   1.0000      -0.136137        -3.7045
 164   1.0000      -0.118060        -3.2126
 165   1.0000      -0.117867        -3.2073
 166   1.0000      -0.090705        -2.4682
 167   1.0000      -0.085880        -2.3369
 168   1.0000      -0.081734        -2.2241
 169   1.0000      -0.078111        -2.1255
 170   1.0000      -0.066312        -1.8044
 171   1.0000      -0.061822        -1.6823
 172   1.0000      -0.061604        -1.6763
 173   1.0000      -0.051702        -1.4069
 174   1.0000      -0.050129        -1.3641
 175   1.0000      -0.046330        -1.2607
 176   1.0000      -0.045474        -1.2374
 177   1.0000      -0.043629        -1.1872
 178   1.0000      -0.036837        -1.0024
 179   1.0000      -0.032399        -0.8816
 180   1.0000      -0.030619        -0.8332
 181   1.0000      -0.020223        -0.5503
 182   1.0000      -0.002812        -0.0765
 183   1.0000      -0.001724        -0.0469
 184   1.0000       0.002550         0.0694
 185   1.0000       0.005824         0.1585
 186   1.0000       0.013308         0.3621
 187   1.0000       0.019260         0.5241
 188   1.0000       0.026659         0.7254
 189   1.0000       0.027546         0.7496
 190   1.0000       0.034170         0.9298
 191   1.0000       0.040777         1.1096
 192   1.0000       0.059357         1.6152
 193   1.0000       0.074892         2.0379
 194   1.0000       0.081902         2.2287
 195   1.0000       0.089993         2.4488
 196   1.0000       0.094308         2.5663
 197   0.0000       0.096737         2.6323
 198   0.0000       0.181189         4.9304
 199   0.0000       0.181281         4.9329
 200   0.0000       0.187185         5.0936
 201   0.0000       0.197280         5.3683

MULLIKEN ATOMIC CHARGES AND SPIN POPULATIONS
--------------------------------------------
   0 Cu:    0.454078   -0.449048
   1 O :   -0.284400   -0.030325
   2 O :   -0.278631   -0.019398
   3 O :   -0.267715   -0.044623
   4 O :   -0.302887   -0.071852
   5 O :   -0.508179   -0.198015
   6 O :   -0.368950   -0.001094
   7 C :    0.109443    0.000833
   8 C :    0.226552   -0.001425
   9 C :    0.131053   -0.001049
  10 C :    0.217947    0.003132
  11 C :    0.163150    0.007877
  12 H :   -0.021148   -0.006986
  13 H :   -0.001151   -0.010308
  14 C :    0.106085   -0.000091
  15 H :    0.032159    0.000272
  16 H :   -0.040770    0.000933
  17 C :    0.046169    0.000062
  18 H :    0.037416    0.000001
  19 C :   -0.097362   -0.000078
  20 H :    0.035920    0.000103
  21 H :    0.014166    0.000013
  22 H :    0.028717    0.000028
  23 C :   -0.088033   -0.000081
  24 H :    0.075654    0.000027
  25 H :    0.028045    0.000007
  26 H :    0.013150   -0.000009
  27 F :   -0.089172    0.000257
  28 F :   -0.059752   -0.000570
  29 F :   -0.076783    0.000142
  30 F :   -0.080130    0.000069
  31 F :   -0.069809   -0.001000
  32 F :   -0.084831    0.001481
  33 Cu:    0.454078    0.449048
  34 O :   -0.284400    0.030325
  35 O :   -0.278632    0.019398
  36 O :   -0.267715    0.044623
  37 O :   -0.302887    0.071852
  38 O :   -0.508179    0.198015
  39 O :   -0.368950    0.001094
  40 C :    0.109443   -0.000833
  41 C :    0.226552    0.001425
  42 C :    0.131053    0.001049
  43 C :    0.217947   -0.003132
  44 C :    0.163150   -0.007878
  45 H :   -0.021148    0.006986
  46 H :   -0.001151    0.010308
  47 C :    0.106085    0.000091
  48 H :    0.032159   -0.000273
  49 H :   -0.040770   -0.000933
  50 C :    0.046169   -0.000062
  51 H :    0.037416   -0.000001
  52 C :   -0.097362    0.000078
  53 H :    0.035920   -0.000103
  54 H :    0.014166   -0.000013
  55 H :    0.028717   -0.000028
  56 C :   -0.088033    0.000081
  57 H :    0.075654   -0.000027
  58 H :    0.028045   -0.000007
  59 H :    0.013150    0.000009
  60 F :   -0.089172   -0.000257
  61 F :   -0.059752    0.000570
  62 F :   -0.076783   -0.000142
  63 F :   -0.080130   -0.000069
  64 F :   -0.069809    0.001000
  65 F :   -0.084831   -0.001481
Sum of atomic charges         :   -2.0000000

LOEWDIN ATOMIC CHARGES AND SPIN POPULATIONS
-------------------------------------------
   0 Cu:    0.191686   -0.449929
   1 O :   -0.127640   -0.029109
   2 O :   -0.129549   -0.018534
   3 O :   -0.112762   -0.043807
   4 O :   -0.139614   -0.070572
   5 O :   -0.374310   -0.192979
   6 O :   -0.161192   -0.000966
   7 C :   -0.059355    0.000147
   8 C :    0.026214   -0.001206
   9 C :   -0.047555    0.000126
  10 C :    0.031477    0.002828
  11 C :    0.014950   -0.000159
  12 H :   -0.007252   -0.004952
  13 H :    0.000558   -0.007807
  14 C :    0.033116    0.000659
  15 H :    0.007909    0.000128
  16 H :   -0.021420    0.000458
  17 C :    0.076928    0.000062
  18 H :    0.005941    0.000009
  19 C :   -0.101684   -0.000001
  20 H :    0.019177    0.000080
  21 H :    0.015524    0.000004
  22 H :    0.018875    0.000011
  23 C :   -0.085620   -0.000038
  24 H :    0.034023   -0.000001
  25 H :    0.018956    0.000001
  26 H :    0.015413   -0.000007
  27 F :   -0.033365    0.000276
  28 F :   -0.009244   -0.000659
  29 F :   -0.023237    0.000137
  30 F :   -0.022461    0.000088
  31 F :   -0.019131   -0.001150
  32 F :   -0.035358    0.001731
  33 Cu:    0.191687    0.449929
  34 O :   -0.127640    0.029109
  35 O :   -0.129549    0.018535
  36 O :   -0.112762    0.043807
  37 O :   -0.139614    0.070572
  38 O :   -0.374309    0.192979
  39 O :   -0.161192    0.000966
  40 C :   -0.059355   -0.000147
  41 C :    0.026214    0.001206
  42 C :   -0.047555   -0.000126
  43 C :    0.031477   -0.002828
  44 C :    0.014950    0.000159
  45 H :   -0.007252    0.004952
  46 H :    0.000558    0.007807
  47 C :    0.033116   -0.000659
  48 H :    0.007909   -0.000128
  49 H :   -0.021420   -0.000458
  50 C :    0.076928   -0.000062
  51 H :    0.005941   -0.000009
  52 C :   -0.101684    0.000001
  53 H :    0.019177   -0.000080
  54 H :    0.015524   -0.000004
  55 H :    0.018875   -0.000011
  56 C :   -0.085620    0.000038
  57 H :    0.034023    0.000001
  58 H :    0.018956   -0.000001
  59 H :    0.015414    0.000007
  60 F :   -0.033365   -0.000276
  61 F :   -0.009244    0.000659
  62 F :   -0.023237   -0.000137
  63 F :   -0.022461   -0.000088
  64 F :   -0.019131    0.001150
  65 F :   -0.035358   -0.001731

  Mayer bond orders larger than 0.100000
B(  0-Cu,  1-O ) :   0.3720 B(  0-Cu,  2-O ) :   0.3672 B(  0-Cu,  3-O ) :   0.3797
B(  0-Cu,  4-O ) :   0.4119 B(  0-Cu,  5-O ) :   0.6312 B(  0-Cu, 33-Cu) :   0.2869
B(  1-O ,  7-C ) :   1.5963 B(  1-O , 35-O ) :   0.1539 B(  2-O , 34-O ) :   0.1539
B(  2-O , 40-C ) :   1.6233 B(  3-O ,  9-C ) :   1.6340 B(  3-O , 37-O ) :   0.1520
B(  4-O , 36-O ) :   0.1520 B(  4-O , 42-C ) :   1.5575 B(  5-O , 11-C ) :   1.1780
B(  6-O , 14-C ) :   0.9694 B(  6-O , 17-C ) :   1.0375 B(  7-C ,  8-C ) :   0.8296
B(  7-C , 35-O ) :   1.6233 B(  8-C , 27-F ) :   1.2018 B(  8-C , 28-F ) :   1.2650
B(  8-C , 29-F ) :   1.2232 B(  9-C , 10-C ) :   0.8345 B(  9-C , 37-O ) :   1.5575
B( 10-C , 30-F ) :   1.2393 B( 10-C , 31-F ) :   1.2529 B( 10-C , 32-F ) :   1.2355
B( 11-C , 12-H ) :   0.9322 B( 11-C , 13-H ) :   0.9331 B( 11-C , 14-C ) :   1.0064
B( 14-C , 15-H ) :   0.9401 B( 14-C , 16-H ) :   0.9235 B( 17-C , 18-H ) :   0.9499
B( 17-C , 19-C ) :   1.0337 B( 17-C , 23-C ) :   1.0467 B( 19-C , 20-H ) :   0.9610
B( 19-C , 21-H ) :   0.9569 B( 19-C , 22-H ) :   0.9600 B( 23-C , 24-H ) :   0.9572
B( 23-C , 25-H ) :   0.9650 B( 23-C , 26-H ) :   0.9616 B( 33-Cu, 34-O ) :   0.3720
B( 33-Cu, 35-O ) :   0.3672 B( 33-Cu, 36-O ) :   0.3797 B( 33-Cu, 37-O ) :   0.4119
B( 33-Cu, 38-O ) :   0.6312 B( 34-O , 40-C ) :   1.5963 B( 36-O , 42-C ) :   1.6340
B( 38-O , 44-C ) :   1.1780 B( 39-O , 47-C ) :   0.9694 B( 39-O , 50-C ) :   1.0375
B( 40-C , 41-C ) :   0.8296 B( 41-C , 60-F ) :   1.2018 B( 41-C , 61-F ) :   1.2650
B( 41-C , 62-F ) :   1.2232 B( 42-C , 43-C ) :   0.8345 B( 43-C , 63-F ) :   1.2393
B( 43-C , 64-F ) :   1.2529 B( 43-C , 65-F ) :   1.2355 B( 44-C , 45-H ) :   0.9322
B( 44-C , 46-H ) :   0.9331 B( 44-C , 47-C ) :   1.0064 B( 47-C , 48-H ) :   0.9401
B( 47-C , 49-H ) :   0.9235 B( 50-C , 51-H ) :   0.9499 B( 50-C , 52-C ) :   1.0337
B( 50-C , 56-C ) :   1.0467 B( 52-C , 53-H ) :   0.9610 B( 52-C , 54-H ) :   0.9569
B( 52-C , 55-H ) :   0.9600 B( 56-C , 57-H ) :   0.9572 B( 56-C , 58-H ) :   0.9650
B( 56-C , 59-H ) :   0.9616

FINAL SINGLE POINT ENERGY     -6124.816581640664

DIPOLE MOMENT
-------------

Method             : SCF
Type of density    : Electron Density
Multiplicity       :   1
Irrep              :   0
Energy             : -6124.8165816406635713 Eh
Basis              : AO
                                X                 Y                 Z
Electronic contribution:     -0.000001000       0.000000533      -0.000000280
Nuclear contribution   :      0.000000000      -0.000000000       0.000000000
                        -----------------------------------------
Total Dipole Moment    :     -0.000001000       0.000000533      -0.000000280
                        -----------------------------------------
Magnitude (a.u.)       :      0.000001167
Magnitude (Debye)      :      0.000002966

Rotational constants in cm-1:             0.002948             0.001717             0.001580
Rotational constants in MHz :            88.364196            51.471294            47.376530

                             ****ORCA TERMINATED NORMALLY****
TOTAL RUN TIME: 0 days 0 hours 4 minutes 3 seconds 408 msec
