                         Program Version 6.1.0  -  RELEASE   -
|  1> ! UKS BP86 RIJCOSX DKH DKH-def2-SVP SARC/J TightSCF
|  2>
|  3> %pal
|  4>   nprocs 16
|  5> end
|  6>
|  7> %maxcore 1000
|  8>
|  9> %scf
| 10> FlipSpin 0
| 11> FinalMs 0
| 12> MaxIter 300
| 13> end
| 14>
| 15> * xyzfile -2 3 Cu2_for_5_BSDFT.xyz
| 16>
| 17>
| 18>                          ****END OF INPUT****

CARTESIAN COORDINATES (ANGSTROEM)
---------------------------------
  Cu     0.141181   -1.336905    0.234754
  O      1.853907   -0.798371    1.051912
  O     -1.617100   -1.409633   -0.682009
  O      0.979405   -1.292850   -1.557639
  O     -0.742003   -0.918471    1.949698
  O      0.308678   -3.400068    0.455636
  O      2.751666   -3.977012    1.815800
  C      2.185509    0.398030    1.131865
  C      3.460615    0.653748    1.941991
  C      1.067687   -0.260173   -2.235795
  C      1.618931   -0.442209   -3.659536
  C      0.382102   -4.233983    1.604840
  H      0.517910   -5.173228    1.322596
  H     -0.471544   -4.183907    2.102861
  C      1.515268   -3.812630    2.506479
  H      1.400268   -2.864765    2.769457
  H      1.513584   -4.364609    3.328165
  C      3.910544   -3.547910    2.558497
  H      3.726181   -2.667977    2.997756
  C      4.270062   -4.575455    3.600776
  H      3.535049   -4.659721    4.244253
  H      5.083192   -4.295457    4.069898
  H      4.424234   -5.440441    3.167295
  C      5.035233   -3.395380    1.539336
  H      4.778069   -2.728796    0.866960
  H      5.197143   -4.256218    1.100076
  H      5.851067   -3.101363    1.994972
  F      3.309933    0.210081    3.176928
  F      3.764557    1.920071    2.010385
  F      4.487126   -0.009151    1.460347
  F      0.626331   -0.649220   -4.492782
  F      2.297897    0.595009   -4.078567
  F      2.422470   -1.493916   -3.738526
  Cu    -0.141181    1.336905   -0.234754
  O     -1.853907    0.798371   -1.051912
  O      1.617100    1.409633    0.682009
  O     -0.979405    1.292850    1.557639
  O      0.742003    0.918471   -1.949698
  O     -0.308678    3.400068   -0.455636
  O     -2.751666    3.977012   -1.815800
  C     -2.185509   -0.398030   -1.131865
  C     -3.460615   -0.653748   -1.941991
  C     -1.067687    0.260173    2.235795
  C     -1.618931    0.442209    3.659536
  C     -0.382102    4.233983   -1.604840
  H     -0.517910    5.173228   -1.322596
  H      0.471544    4.183907   -2.102861
  C     -1.515268    3.812630   -2.506479
  H     -1.400268    2.864765   -2.769457
  H     -1.513584    4.364609   -3.328165
  C     -3.910544    3.547910   -2.558497
  H     -3.726181    2.667977   -2.997756
  C     -4.270062    4.575455   -3.600776
  H     -3.535049    4.659721   -4.244253
  H     -5.083192    4.295457   -4.069898
  H     -4.424234    5.440441   -3.167295
  C     -5.035233    3.395380   -1.539336
  H     -4.778069    2.728796   -0.866960
  H     -5.197143    4.256218   -1.100076
  H     -5.851067    3.101363   -1.994972
  F     -3.309933   -0.210081   -3.176928
  F     -3.764557   -1.920071   -2.010385
  F     -4.487126    0.009151   -1.460347
  F     -0.626331    0.649220    4.492782
  F     -2.297897   -0.595009    4.078567
  F     -2.422470    1.493916    3.738526

 Total Charge           Charge          ....   -2
 Multiplicity           Mult            ....    3
 Number of Electrons    NEL             ....  394
 Basis Dimension        Dim             ....  780

ORBITAL ENERGIES
----------------
                 SPIN UP ORBITALS
  NO   OCC          E(Eh)            E(eV)
   0   1.0000    -324.911802     -8841.2996
   1   1.0000    -324.911760     -8841.2985
   2   1.0000     -38.892099     -1058.3078
   3   1.0000     -38.892055     -1058.3066
   4   1.0000     -33.575379      -913.6325
   5   1.0000     -33.575333      -913.6313
   6   1.0000     -33.574770      -913.6159
   7   1.0000     -33.574722      -913.6146
   8   1.0000     -33.569741      -913.4791
   9   1.0000     -33.569706      -913.4781
  10   1.0000     -24.134358      -656.7293
  11   1.0000     -24.134347      -656.7290
  12   1.0000     -24.133968      -656.7186
  13   1.0000     -24.133958      -656.7184
  14   1.0000     -24.132791      -656.6866
  15   1.0000     -24.132782      -656.6864
  16   1.0000     -24.132531      -656.6796
  17   1.0000     -24.132525      -656.6794
  18   1.0000     -24.128948      -656.5821
  19   1.0000     -24.128938      -656.5818
  20   1.0000     -24.123121      -656.4235
  21   1.0000     -24.123116      -656.4234
  22   1.0000     -18.563625      -505.1419
  23   1.0000     -18.563608      -505.1415
  24   1.0000     -18.555847      -504.9303
  25   1.0000     -18.555825      -504.9297
  26   1.0000     -18.554831      -504.9026
  27   1.0000     -18.554807      -504.9020
  28   1.0000     -18.554643      -504.8975
  29   1.0000     -18.554618      -504.8968
  30   1.0000     -18.553842      -504.8757
  31   1.0000     -18.553809      -504.8748
  32   1.0000     -18.467592      -502.5287
  33   1.0000     -18.467564      -502.5280
  34   1.0000      -9.931551      -270.2512
  35   1.0000      -9.931542      -270.2510
  36   1.0000      -9.930216      -270.2149
  37   1.0000      -9.930209      -270.2147
  38   1.0000      -9.799244      -266.6510
  39   1.0000      -9.799231      -266.6506
  40   1.0000      -9.798066      -266.6189
  41   1.0000      -9.798060      -266.6188
  42   1.0000      -9.753577      -265.4083
  43   1.0000      -9.753572      -265.4082
  44   1.0000      -9.703181      -264.0370
  45   1.0000      -9.703157      -264.0363
  46   1.0000      -9.695069      -263.8162
  47   1.0000      -9.695065      -263.8161
  48   1.0000      -9.686699      -263.5885
  49   1.0000      -9.686676      -263.5879
  50   1.0000      -9.682820      -263.4829
  51   1.0000      -9.682819      -263.4829
  52   1.0000      -4.035809      -109.8199
  53   1.0000      -4.035767      -109.8188
  54   1.0000      -2.479990       -67.4840
  55   1.0000      -2.479938       -67.4825
  56   1.0000      -2.478846       -67.4528
  57   1.0000      -2.478793       -67.4514
  58   1.0000      -2.463272       -67.0290
  59   1.0000      -2.462815       -67.0166
  60   1.0000      -1.023848       -27.8603
  61   1.0000      -1.023842       -27.8602
  62   1.0000      -1.019122       -27.7317
  63   1.0000      -1.019115       -27.7315
  64   1.0000      -0.927901       -25.2495
  65   1.0000      -0.927896       -25.2493
  66   1.0000      -0.924884       -25.1674
  67   1.0000      -0.924879       -25.1672
  68   1.0000      -0.918698       -24.9991
  69   1.0000      -0.918693       -24.9989
  70   1.0000      -0.914515       -24.8852
  71   1.0000      -0.914513       -24.8852
  72   1.0000      -0.769187       -20.9306
  73   1.0000      -0.763904       -20.7869
  74   1.0000      -0.762233       -20.7414
  75   1.0000      -0.758750       -20.6466
  76   1.0000      -0.722999       -19.6738
  77   1.0000      -0.722985       -19.6734
  78   1.0000      -0.686176       -18.6718
  79   1.0000      -0.681177       -18.5358
  80   1.0000      -0.680107       -18.5066
  81   1.0000      -0.677587       -18.4381
  82   1.0000      -0.586645       -15.9634
  83   1.0000      -0.586589       -15.9619
  84   1.0000      -0.543094       -14.7783
  85   1.0000      -0.543085       -14.7781
  86   1.0000      -0.478801       -13.0288
  87   1.0000      -0.478794       -13.0286
  88   1.0000      -0.457472       -12.4484
  89   1.0000      -0.456119       -12.4116
  90   1.0000      -0.453459       -12.3392
  91   1.0000      -0.453453       -12.3391
  92   1.0000      -0.440047       -11.9743
  93   1.0000      -0.440021       -11.9736
  94   1.0000      -0.379103       -10.3159
  95   1.0000      -0.376472       -10.2443
  96   1.0000      -0.373220       -10.1558
  97   1.0000      -0.373211       -10.1556
  98   1.0000      -0.359767        -9.7898
  99   1.0000      -0.359731        -9.7888
 100   1.0000      -0.349975        -9.5233
 101   1.0000      -0.349877        -9.5206
 102   1.0000      -0.348007        -9.4698
 103   1.0000      -0.347997        -9.4695
 104   1.0000      -0.347723        -9.4620
 105   1.0000      -0.347636        -9.4596
 106   1.0000      -0.342825        -9.3287
 107   1.0000      -0.342638        -9.3237
 108   1.0000      -0.333434        -9.0732
 109   1.0000      -0.333385        -9.0719
 110   1.0000      -0.275826        -7.5056
 111   1.0000      -0.275764        -7.5039
 112   1.0000      -0.254089        -6.9141
 113   1.0000      -0.249883        -6.7997
 114   1.0000      -0.249876        -6.7995
 115   1.0000      -0.241086        -6.5603
 116   1.0000      -0.236891        -6.4461
 117   1.0000      -0.235975        -6.4212
 118   1.0000      -0.235080        -6.3968
 119   1.0000      -0.233480        -6.3533
 120   1.0000      -0.230992        -6.2856
 121   1.0000      -0.224266        -6.1026
 122   1.0000      -0.223499        -6.0817
 123   1.0000      -0.222130        -6.0445
 124   1.0000      -0.221266        -6.0209
 125   1.0000      -0.220395        -5.9973
 126   1.0000      -0.219969        -5.9857
 127   1.0000      -0.219019        -5.9598
 128   1.0000      -0.217775        -5.9260
 129   1.0000      -0.206336        -5.6147
 130   1.0000      -0.205475        -5.5913
 131   1.0000      -0.203491        -5.5373
 132   1.0000      -0.203440        -5.5359
 133   1.0000      -0.203236        -5.5303
 134   1.0000      -0.202634        -5.5139
 135   1.0000      -0.199516        -5.4291
 136   1.0000      -0.197394        -5.3714
 137   1.0000      -0.194245        -5.2857
 138   1.0000      -0.194138        -5.2828
 139   1.0000      -0.193758        -5.2724
 140   1.0000      -0.190579        -5.1859
 141   1.0000      -0.186985        -5.0881
 142   1.0000      -0.179501        -4.8845
 143   1.0000      -0.179422        -4.8823
 144   1.0000      -0.177148        -4.8204
 145   1.0000      -0.175077        -4.7641
 146   1.0000      -0.174201        -4.7403
 147   1.0000      -0.172645        -4.6979
 148   1.0000      -0.171211        -4.6589
 149   1.0000      -0.170980        -4.6526
 150   1.0000      -0.170327        -4.6348
 151   1.0000      -0.169332        -4.6077
 152   1.0000      -0.165916        -4.5148
 153   1.0000      -0.159132        -4.3302
 154   1.0000      -0.156360        -4.2548
 155   1.0000      -0.156343        -4.2543
 156   1.0000      -0.155536        -4.2323
 157   1.0000      -0.153761        -4.1841
 158   1.0000      -0.153498        -4.1769
 159   1.0000      -0.153405        -4.1744
 160   1.0000      -0.153083        -4.1656
 161   1.0000      -0.143335        -3.9004
 162   1.0000      -0.141331        -3.8458
 163   1.0000      -0.141198        -3.8422
 164   1.0000      -0.122162        -3.3242
 165   1.0000      -0.122084        -3.3221
 166   1.0000      -0.097886        -2.6636
 167   1.0000      -0.093835        -2.5534
 168   1.0000      -0.084325        -2.2946
 169   1.0000      -0.081941        -2.2297
 170   1.0000      -0.069897        -1.9020
 171   1.0000      -0.065641        -1.7862
 172   1.0000      -0.065584        -1.7846
 173   1.0000      -0.054314        -1.4780
 174   1.0000      -0.052195        -1.4203
 175   1.0000      -0.051627        -1.4048
 176   1.0000      -0.047844        -1.3019
 177   1.0000      -0.044856        -1.2206
 178   1.0000      -0.042649        -1.1606
 179   1.0000      -0.035876        -0.9762
 180   1.0000      -0.033072        -0.8999
 181   1.0000      -0.021863        -0.5949
 182   1.0000      -0.005711        -0.1554
 183   1.0000      -0.005227        -0.1422
 184   1.0000       0.005967         0.1624
 185   1.0000       0.009617         0.2617
 186   1.0000       0.012957         0.3526
 187   1.0000       0.013269         0.3611
 188   1.0000       0.024107         0.6560
 189   1.0000       0.028228         0.7681
 190   1.0000       0.031397         0.8543
 191   1.0000       0.036918         1.0046
 192   1.0000       0.061981         1.6866
 193   1.0000       0.073813         2.0086
 194   1.0000       0.076848         2.0912
 195   1.0000       0.078911         2.1473
 196   1.0000       0.081749         2.2245
 197   0.0000       0.088976         2.4212
 198   0.0000       0.177929         4.8417
 199   0.0000       0.178135         4.8473
 200   0.0000       0.183061         4.9814
 201   0.0000       0.193320         5.2605

                 SPIN DOWN ORBITALS
  NO   OCC          E(Eh)            E(eV)
   0   1.0000    -324.911806     -8841.2997
   1   1.0000    -324.911764     -8841.2986
   2   1.0000     -38.888327     -1058.2052
   3   1.0000     -38.888293     -1058.2043
   4   1.0000     -33.573332      -913.5768
   5   1.0000     -33.573304      -913.5760
   6   1.0000     -33.569450      -913.4712
   7   1.0000     -33.569414      -913.4702
   8   1.0000     -33.568603      -913.4481
   9   1.0000     -33.568560      -913.4470
  10   1.0000     -24.134349      -656.7290
  11   1.0000     -24.134338      -656.7287
  12   1.0000     -24.133956      -656.7183
  13   1.0000     -24.133946      -656.7181
  14   1.0000     -24.132778      -656.6863
  15   1.0000     -24.132770      -656.6861
  16   1.0000     -24.132500      -656.6787
  17   1.0000     -24.132493      -656.6785
  18   1.0000     -24.128921      -656.5813
  19   1.0000     -24.128910      -656.5810
  20   1.0000     -24.123117      -656.4234
  21   1.0000     -24.123112      -656.4232
  22   1.0000     -18.563652      -505.1426
  23   1.0000     -18.563635      -505.1422
  24   1.0000     -18.555031      -504.9081
  25   1.0000     -18.555008      -504.9074
  26   1.0000     -18.553804      -504.8747
  27   1.0000     -18.553781      -504.8741
  28   1.0000     -18.553652      -504.8705
  29   1.0000     -18.553628      -504.8699
  30   1.0000     -18.552894      -504.8499
  31   1.0000     -18.552861      -504.8490
  32   1.0000     -18.474005      -502.7032
  33   1.0000     -18.473971      -502.7023
  34   1.0000      -9.931116      -270.2394
  35   1.0000      -9.931107      -270.2392
  36   1.0000      -9.929785      -270.2032
  37   1.0000      -9.929778      -270.2030
  38   1.0000      -9.799364      -266.6543
  39   1.0000      -9.799350      -266.6539
  40   1.0000      -9.798186      -266.6222
  41   1.0000      -9.798179      -266.6220
  42   1.0000      -9.753577      -265.4083
  43   1.0000      -9.753572      -265.4082
  44   1.0000      -9.703187      -264.0371
  45   1.0000      -9.703163      -264.0365
  46   1.0000      -9.695070      -263.8163
  47   1.0000      -9.695065      -263.8161
  48   1.0000      -9.686569      -263.5849
  49   1.0000      -9.686547      -263.5843
  50   1.0000      -9.682821      -263.4829
  51   1.0000      -9.682819      -263.4829
  52   1.0000      -4.028298      -109.6156
  53   1.0000      -4.028270      -109.6148
  54   1.0000      -2.472365       -67.2765
  55   1.0000      -2.471938       -67.2649
  56   1.0000      -2.464820       -67.0712
  57   1.0000      -2.464800       -67.0706
  58   1.0000      -2.463007       -67.0218
  59   1.0000      -2.462971       -67.0208
  60   1.0000      -1.023747       -27.8576
  61   1.0000      -1.023742       -27.8574
  62   1.0000      -1.019021       -27.7290
  63   1.0000      -1.019015       -27.7288
  64   1.0000      -0.927855       -25.2482
  65   1.0000      -0.927850       -25.2481
  66   1.0000      -0.924818       -25.1656
  67   1.0000      -0.924814       -25.1655
  68   1.0000      -0.918632       -24.9973
  69   1.0000      -0.918627       -24.9971
  70   1.0000      -0.914473       -24.8841
  71   1.0000      -0.914471       -24.8840
  72   1.0000      -0.767931       -20.8965
  73   1.0000      -0.762619       -20.7519
  74   1.0000      -0.760984       -20.7074
  75   1.0000      -0.757457       -20.6114
  76   1.0000      -0.723077       -19.6759
  77   1.0000      -0.723063       -19.6755
  78   1.0000      -0.684592       -18.6287
  79   1.0000      -0.679553       -18.4916
  80   1.0000      -0.678516       -18.4634
  81   1.0000      -0.675936       -18.3931
  82   1.0000      -0.596151       -16.2221
  83   1.0000      -0.596088       -16.2204
  84   1.0000      -0.543820       -14.7981
  85   1.0000      -0.543812       -14.7979
  86   1.0000      -0.478882       -13.0311
  87   1.0000      -0.478876       -13.0309
  88   1.0000      -0.456783       -12.4297
  89   1.0000      -0.455455       -12.3936
  90   1.0000      -0.452807       -12.3215
  91   1.0000      -0.452779       -12.3207
  92   1.0000      -0.442270       -12.0348
  93   1.0000      -0.442241       -12.0340
  94   1.0000      -0.378553       -10.3009
  95   1.0000      -0.375903       -10.2288
  96   1.0000      -0.372661       -10.1406
  97   1.0000      -0.372583       -10.1385
  98   1.0000      -0.360154        -9.8003
  99   1.0000      -0.360117        -9.7993
 100   1.0000      -0.349818        -9.5190
 101   1.0000      -0.349726        -9.5165
 102   1.0000      -0.347843        -9.4653
 103   1.0000      -0.347832        -9.4650
 104   1.0000      -0.347556        -9.4575
 105   1.0000      -0.347471        -9.4552
 106   1.0000      -0.342669        -9.3245
 107   1.0000      -0.342489        -9.3196
 108   1.0000      -0.335283        -9.1235
 109   1.0000      -0.335235        -9.1222
 110   1.0000      -0.276055        -7.5118
 111   1.0000      -0.275999        -7.5103
 112   1.0000      -0.253208        -6.8901
 113   1.0000      -0.249908        -6.8003
 114   1.0000      -0.249900        -6.8001
 115   1.0000      -0.240601        -6.5471
 116   1.0000      -0.235580        -6.4104
 117   1.0000      -0.235414        -6.4059
 118   1.0000      -0.233966        -6.3665
 119   1.0000      -0.231854        -6.3091
 120   1.0000      -0.230638        -6.2760
 121   1.0000      -0.224073        -6.0973
 122   1.0000      -0.223223        -6.0742
 123   1.0000      -0.222055        -6.0424
 124   1.0000      -0.221213        -6.0195
 125   1.0000      -0.220270        -5.9939
 126   1.0000      -0.219862        -5.9828
 127   1.0000      -0.218855        -5.9553
 128   1.0000      -0.217558        -5.9201
 129   1.0000      -0.205656        -5.5962
 130   1.0000      -0.203804        -5.5458
 131   1.0000      -0.203360        -5.5337
 132   1.0000      -0.202294        -5.5047
 133   1.0000      -0.201543        -5.4843
 134   1.0000      -0.201301        -5.4777
 135   1.0000      -0.199905        -5.4397
 136   1.0000      -0.197171        -5.3653
 137   1.0000      -0.194489        -5.2923
 138   1.0000      -0.193976        -5.2784
 139   1.0000      -0.193836        -5.2746
 140   1.0000      -0.190393        -5.1809
 141   1.0000      -0.186893        -5.0856
 142   1.0000      -0.179143        -4.8747
 143   1.0000      -0.178996        -4.8707
 144   1.0000      -0.176809        -4.8112
 145   1.0000      -0.174619        -4.7516
 146   1.0000      -0.173715        -4.7270
 147   1.0000      -0.172427        -4.6920
 148   1.0000      -0.171479        -4.6662
 149   1.0000      -0.171468        -4.6659
 150   1.0000      -0.170216        -4.6318
 151   1.0000      -0.169067        -4.6005
 152   1.0000      -0.165579        -4.5056
 153   1.0000      -0.158849        -4.3225
 154   1.0000      -0.156564        -4.2603
 155   1.0000      -0.156529        -4.2594
 156   1.0000      -0.155643        -4.2353
 157   1.0000      -0.155185        -4.2228
 158   1.0000      -0.154539        -4.2052
 159   1.0000      -0.153434        -4.1751
 160   1.0000      -0.153052        -4.1648
 161   1.0000      -0.142982        -3.8907
 162   1.0000      -0.142175        -3.8688
 163   1.0000      -0.142061        -3.8657
 164   1.0000      -0.122496        -3.3333
 165   1.0000      -0.122408        -3.3309
 166   1.0000      -0.101012        -2.7487
 167   1.0000      -0.098114        -2.6698
 168   1.0000      -0.083925        -2.2837
 169   1.0000      -0.081231        -2.2104
 170   1.0000      -0.066134        -1.7996
 171   1.0000      -0.066094        -1.7985
 172   1.0000      -0.059670        -1.6237
 173   1.0000      -0.051478        -1.4008
 174   1.0000      -0.050925        -1.3857
 175   1.0000      -0.048919        -1.3312
 176   1.0000      -0.046227        -1.2579
 177   1.0000      -0.043454        -1.1825
 178   1.0000      -0.036581        -0.9954
 179   1.0000      -0.034192        -0.9304
 180   1.0000      -0.031481        -0.8566
 181   1.0000      -0.020789        -0.5657
 182   1.0000      -0.007775        -0.2116
 183   1.0000      -0.005902        -0.1606
 184   1.0000      -0.000930        -0.0253
 185   1.0000       0.008386         0.2282
 186   1.0000       0.009671         0.2632
 187   1.0000       0.016781         0.4566
 188   1.0000       0.026877         0.7314
 189   1.0000       0.031727         0.8633
 190   1.0000       0.032064         0.8725
 191   1.0000       0.032253         0.8777
 192   1.0000       0.054086         1.4717
 193   1.0000       0.068347         1.8598
 194   1.0000       0.072989         1.9861
 195   1.0000       0.074212         2.0194
 196   1.0000       0.086445         2.3523
 197   0.0000       0.099905         2.7186
 198   0.0000       0.178358         4.8534
 199   0.0000       0.178536         4.8582
 200   0.0000       0.183451         4.9919
 201   0.0000       0.193802         5.2736

MULLIKEN ATOMIC CHARGES AND SPIN POPULATIONS
--------------------------------------------
   0 Cu:    0.452406    0.155257
   1 O :   -0.286134    0.035574
   2 O :   -0.277134    0.034011
   3 O :   -0.269157    0.036270
   4 O :   -0.308187    0.029814
   5 O :   -0.485789   -0.291647
   6 O :   -0.369567   -0.000941
   7 C :    0.113864   -0.006153
   8 C :    0.388502    0.013917
   9 C :    0.127462   -0.006365
  10 C :    0.375792    0.013738
  11 C :    0.158577    0.010578
  12 H :   -0.011193   -0.017151
  13 H :    0.004836   -0.007859
  14 C :    0.103979   -0.001405
  15 H :    0.037612   -0.000940
  16 H :   -0.035567    0.000708
  17 C :    0.041779    0.000103
  18 H :    0.043543    0.000040
  19 C :   -0.098409   -0.000170
  20 H :    0.036496    0.000104
  21 H :    0.015873    0.000033
  22 H :    0.029085    0.000024
  23 C :   -0.088270    0.000015
  24 H :    0.080189   -0.000017
  25 H :    0.028119    0.000001
  26 H :    0.014528   -0.000013
  27 F :   -0.150560    0.000586
  28 F :   -0.117217    0.000212
  29 F :   -0.139364    0.000263
  30 F :   -0.140985    0.000674
  31 F :   -0.129785    0.000281
  32 F :   -0.145297    0.000110
  33 Cu:    0.452405    0.155670
  34 O :   -0.286130    0.035587
  35 O :   -0.277121    0.034021
  36 O :   -0.269155    0.036300
  37 O :   -0.308181    0.029879
  38 O :   -0.485838   -0.291458
  39 O :   -0.369565   -0.000939
  40 C :    0.113876   -0.006156
  41 C :    0.388497    0.013917
  42 C :    0.127476   -0.006359
  43 C :    0.375790    0.013734
  44 C :    0.158601    0.010558
  45 H :   -0.011210   -0.017145
  46 H :    0.004810   -0.007850
  47 C :    0.103965   -0.001411
  48 H :    0.037605   -0.000941
  49 H :   -0.035574    0.000699
  50 C :    0.041784    0.000103
  51 H :    0.043537    0.000040
  52 C :   -0.098399   -0.000169
  53 H :    0.036492    0.000102
  54 H :    0.015867    0.000033
  55 H :    0.029082    0.000024
  56 C :   -0.088262    0.000015
  57 H :    0.080184   -0.000017
  58 H :    0.028116    0.000001
  59 H :    0.014524   -0.000013
  60 F :   -0.150558    0.000586
  61 F :   -0.117218    0.000212
  62 F :   -0.139362    0.000263
  63 F :   -0.140983    0.000674
  64 F :   -0.129784    0.000282
  65 F :   -0.145299    0.000109
Sum of atomic charges         :   -2.0000000

LOEWDIN ATOMIC CHARGES AND SPIN POPULATIONS
-------------------------------------------
   0 Cu:    0.186013    0.152328
   1 O :   -0.128198    0.033197
   2 O :   -0.126076    0.031829
   3 O :   -0.115192    0.034138
   4 O :   -0.147500    0.027493
   5 O :   -0.343120   -0.283713
   6 O :   -0.161511   -0.000945
   7 C :   -0.053558   -0.000719
   8 C :    0.040791    0.012205
   9 C :   -0.047153   -0.000997
  10 C :    0.045101    0.012066
  11 C :    0.017042   -0.001139
  12 H :   -0.001130   -0.012198
  13 H :    0.001937   -0.006043
  14 C :    0.034492   -0.000724
  15 H :    0.009566   -0.000232
  16 H :   -0.019162    0.000347
  17 C :    0.077150   -0.000022
  18 H :    0.007770   -0.000006
  19 C :   -0.101402   -0.000024
  20 H :    0.019471    0.000078
  21 H :    0.016260    0.000008
  22 H :    0.018994    0.000008
  23 C :   -0.084893   -0.000010
  24 H :    0.035322    0.000002
  25 H :    0.018978    0.000001
  26 H :    0.016078   -0.000000
  27 F :   -0.045052    0.000728
  28 F :   -0.020627    0.000306
  29 F :   -0.034807    0.000339
  30 F :   -0.034956    0.000823
  31 F :   -0.031663    0.000362
  32 F :   -0.048937    0.000166
  33 Cu:    0.186016    0.152750
  34 O :   -0.128188    0.033208
  35 O :   -0.126060    0.031837
  36 O :   -0.115185    0.034169
  37 O :   -0.147494    0.027553
  38 O :   -0.343191   -0.283537
  39 O :   -0.161511   -0.000944
  40 C :   -0.053549   -0.000721
  41 C :    0.040789    0.012205
  42 C :   -0.047143   -0.000994
  43 C :    0.045100    0.012063
  44 C :    0.017040   -0.001148
  45 H :   -0.001135   -0.012196
  46 H :    0.001922   -0.006035
  47 C :    0.034483   -0.000734
  48 H :    0.009563   -0.000232
  49 H :   -0.019163    0.000343
  50 C :    0.077152   -0.000022
  51 H :    0.007768   -0.000006
  52 C :   -0.101401   -0.000024
  53 H :    0.019470    0.000077
  54 H :    0.016258    0.000008
  55 H :    0.018993    0.000008
  56 C :   -0.084891   -0.000009
  57 H :    0.035319    0.000002
  58 H :    0.018977    0.000001
  59 H :    0.016076   -0.000000
  60 F :   -0.045051    0.000728
  61 F :   -0.020629    0.000306
  62 F :   -0.034807    0.000339
  63 F :   -0.034954    0.000823
  64 F :   -0.031661    0.000363
  65 F :   -0.048939    0.000165

  Mayer bond orders larger than 0.100000
B(  0-Cu,  1-O ) :   0.3612 B(  0-Cu,  2-O ) :   0.3699 B(  0-Cu,  3-O ) :   0.3659
B(  0-Cu,  4-O ) :   0.3761 B(  0-Cu,  5-O ) :   0.4997 B(  0-Cu, 33-Cu) :   0.4759
B(  1-O ,  7-C ) :   1.6021 B(  1-O , 35-O ) :   0.1570 B(  2-O , 34-O ) :   0.1570
B(  2-O , 40-C ) :   1.6252 B(  3-O ,  9-C ) :   1.6395 B(  3-O , 37-O ) :   0.1570
B(  4-O , 36-O ) :   0.1570 B(  4-O , 42-C ) :   1.5707 B(  5-O , 11-C ) :   1.1658
B(  5-O , 38-O ) :   0.1361 B(  6-O , 14-C ) :   0.9715 B(  6-O , 17-C ) :   1.0345
B(  7-C ,  8-C ) :   0.8662 B(  7-C , 35-O ) :   1.6252 B(  8-C , 27-F ) :   1.1393
B(  8-C , 28-F ) :   1.2099 B(  8-C , 29-F ) :   1.1578 B(  9-C , 10-C ) :   0.8677
B(  9-C , 37-O ) :   1.5707 B( 10-C , 30-F ) :   1.1705 B( 10-C , 31-F ) :   1.1925
B( 10-C , 32-F ) :   1.1770 B( 11-C , 12-H ) :   0.9317 B( 11-C , 13-H ) :   0.9361
B( 11-C , 14-C ) :   1.0078 B( 14-C , 15-H ) :   0.9409 B( 14-C , 16-H ) :   0.9256
B( 17-C , 18-H ) :   0.9513 B( 17-C , 19-C ) :   1.0343 B( 17-C , 23-C ) :   1.0473
B( 19-C , 20-H ) :   0.9613 B( 19-C , 21-H ) :   0.9571 B( 19-C , 22-H ) :   0.9600
B( 23-C , 24-H ) :   0.9577 B( 23-C , 25-H ) :   0.9652 B( 23-C , 26-H ) :   0.9616
B( 33-Cu, 34-O ) :   0.3612 B( 33-Cu, 35-O ) :   0.3699 B( 33-Cu, 36-O ) :   0.3660
B( 33-Cu, 37-O ) :   0.3761 B( 33-Cu, 38-O ) :   0.4996 B( 34-O , 40-C ) :   1.6021
B( 36-O , 42-C ) :   1.6395 B( 38-O , 44-C ) :   1.1658 B( 39-O , 47-C ) :   0.9715
B( 39-O , 50-C ) :   1.0345 B( 40-C , 41-C ) :   0.8662 B( 41-C , 60-F ) :   1.1393
B( 41-C , 61-F ) :   1.2099 B( 41-C , 62-F ) :   1.1578 B( 42-C , 43-C ) :   0.8677
B( 43-C , 63-F ) :   1.1705 B( 43-C , 64-F ) :   1.1925 B( 43-C , 65-F ) :   1.1770
B( 44-C , 45-H ) :   0.9317 B( 44-C , 46-H ) :   0.9361 B( 44-C , 47-C ) :   1.0078
B( 47-C , 48-H ) :   0.9409 B( 47-C , 49-H ) :   0.9256 B( 50-C , 51-H ) :   0.9513
B( 50-C , 52-C ) :   1.0343 B( 50-C , 56-C ) :   1.0473 B( 52-C , 53-H ) :   0.9613
B( 52-C , 54-H ) :   0.9571 B( 52-C , 55-H ) :   0.9600 B( 56-C , 57-H ) :   0.9577
B( 56-C , 58-H ) :   0.9652 B( 56-C , 59-H ) :   0.9616

FINAL SINGLE POINT ENERGY     -6109.333477151093

DIPOLE MOMENT
-------------

Method             : SCF
Type of density    : Electron Density
Multiplicity       :   1
Irrep              :   0
Energy             : -6109.3334771510926657 Eh
Basis              : AO
                                X                 Y                 Z
Electronic contribution:      0.000103245      -0.000631823       0.000286853
Nuclear contribution   :      0.000000000      -0.000000000       0.000000000
                        -----------------------------------------
Total Dipole Moment    :      0.000103245      -0.000631823       0.000286853
                        -----------------------------------------
Magnitude (a.u.)       :      0.000701530
Magnitude (Debye)      :      0.001783147

Rotational constants in cm-1:             0.002948             0.001717             0.001580
Rotational constants in MHz :            88.364196            51.471294            47.376530

                             ****ORCA TERMINATED NORMALLY****
TOTAL RUN TIME: 0 days 0 hours 3 minutes 40 seconds 566 msec
