                         Program Version 6.1.0  -  RELEASE   -
|  1> ! UKS BP86 def2-SVP def2/J TightSCF RIJCOSX
|  2>
|  3> %pal
|  4>   nprocs 16
|  5> end
|  6>
|  7> %maxcore 1000
|  8>
|  9> %scf
| 10> FlipSpin 0
| 11> FinalMs 0
| 12> MaxIter 300
| 13> end
| 14>
| 15> * xyzfile -2 3 Cu2_for_5_BSDFT.xyz
| 16>
| 17>
| 18>                          ****END OF INPUT****

CARTESIAN COORDINATES (ANGSTROEM)
---------------------------------
  Cu     0.141181   -1.336905    0.234754
  O      1.853907   -0.798371    1.051912
  O     -1.617100   -1.409633   -0.682009
  O      0.979405   -1.292850   -1.557639
  O     -0.742003   -0.918471    1.949698
  O      0.308678   -3.400068    0.455636
  O      2.751666   -3.977012    1.815800
  C      2.185509    0.398030    1.131865
  C      3.460615    0.653748    1.941991
  C      1.067687   -0.260173   -2.235795
  C      1.618931   -0.442209   -3.659536
  C      0.382102   -4.233983    1.604840
  H      0.517910   -5.173228    1.322596
  H     -0.471544   -4.183907    2.102861
  C      1.515268   -3.812630    2.506479
  H      1.400268   -2.864765    2.769457
  H      1.513584   -4.364609    3.328165
  C      3.910544   -3.547910    2.558497
  H      3.726181   -2.667977    2.997756
  C      4.270062   -4.575455    3.600776
  H      3.535049   -4.659721    4.244253
  H      5.083192   -4.295457    4.069898
  H      4.424234   -5.440441    3.167295
  C      5.035233   -3.395380    1.539336
  H      4.778069   -2.728796    0.866960
  H      5.197143   -4.256218    1.100076
  H      5.851067   -3.101363    1.994972
  F      3.309933    0.210081    3.176928
  F      3.764557    1.920071    2.010385
  F      4.487126   -0.009151    1.460347
  F      0.626331   -0.649220   -4.492782
  F      2.297897    0.595009   -4.078567
  F      2.422470   -1.493916   -3.738526
  Cu    -0.141181    1.336905   -0.234754
  O     -1.853907    0.798371   -1.051912
  O      1.617100    1.409633    0.682009
  O     -0.979405    1.292850    1.557639
  O      0.742003    0.918471   -1.949698
  O     -0.308678    3.400068   -0.455636
  O     -2.751666    3.977012   -1.815800
  C     -2.185509   -0.398030   -1.131865
  C     -3.460615   -0.653748   -1.941991
  C     -1.067687    0.260173    2.235795
  C     -1.618931    0.442209    3.659536
  C     -0.382102    4.233983   -1.604840
  H     -0.517910    5.173228   -1.322596
  H      0.471544    4.183907   -2.102861
  C     -1.515268    3.812630   -2.506479
  H     -1.400268    2.864765   -2.769457
  H     -1.513584    4.364609   -3.328165
  C     -3.910544    3.547910   -2.558497
  H     -3.726181    2.667977   -2.997756
  C     -4.270062    4.575455   -3.600776
  H     -3.535049    4.659721   -4.244253
  H     -5.083192    4.295457   -4.069898
  H     -4.424234    5.440441   -3.167295
  C     -5.035233    3.395380   -1.539336
  H     -4.778069    2.728796   -0.866960
  H     -5.197143    4.256218   -1.100076
  H     -5.851067    3.101363   -1.994972
  F     -3.309933   -0.210081   -3.176928
  F     -3.764557   -1.920071   -2.010385
  F     -4.487126    0.009151   -1.460347
  F     -0.626331    0.649220    4.492782
  F     -2.297897   -0.595009    4.078567
  F     -2.422470    1.493916    3.738526

 Total Charge           Charge          ....   -2
 Multiplicity           Mult            ....    3
 Number of Electrons    NEL             ....  394
 Basis Dimension        Dim             ....  760

ORBITAL ENERGIES
----------------
                 SPIN UP ORBITALS
  NO   OCC          E(Eh)            E(eV)
   0   1.0000    -321.436512     -8746.7322
   1   1.0000    -321.436434     -8746.7300
   2   1.0000     -38.128036     -1037.5166
   3   1.0000     -38.127936     -1037.5139
   4   1.0000     -33.433594      -909.7744
   5   1.0000     -33.433570      -909.7737
   6   1.0000     -33.433468      -909.7709
   7   1.0000     -33.433448      -909.7704
   8   1.0000     -33.428372      -909.6323
   9   1.0000     -33.428274      -909.6296
  10   1.0000     -24.126913      -656.5267
  11   1.0000     -24.126912      -656.5267
  12   1.0000     -24.126576      -656.5175
  13   1.0000     -24.126574      -656.5175
  14   1.0000     -24.125392      -656.4853
  15   1.0000     -24.125392      -656.4853
  16   1.0000     -24.125123      -656.4780
  17   1.0000     -24.125121      -656.4779
  18   1.0000     -24.121462      -656.3783
  19   1.0000     -24.121459      -656.3783
  20   1.0000     -24.115753      -656.2230
  21   1.0000     -24.115752      -656.2230
  22   1.0000     -18.564623      -505.1691
  23   1.0000     -18.564623      -505.1691
  24   1.0000     -18.553962      -504.8790
  25   1.0000     -18.553939      -504.8783
  26   1.0000     -18.552931      -504.8509
  27   1.0000     -18.552909      -504.8503
  28   1.0000     -18.552639      -504.8430
  29   1.0000     -18.552616      -504.8424
  30   1.0000     -18.551976      -504.8249
  31   1.0000     -18.551954      -504.8243
  32   1.0000     -18.470609      -502.6108
  33   1.0000     -18.470605      -502.6107
  34   1.0000      -9.936860      -270.3957
  35   1.0000      -9.936855      -270.3956
  36   1.0000      -9.935564      -270.3604
  37   1.0000      -9.935558      -270.3603
  38   1.0000      -9.804228      -266.7866
  39   1.0000      -9.804224      -266.7865
  40   1.0000      -9.803007      -266.7534
  41   1.0000      -9.803005      -266.7533
  42   1.0000      -9.760916      -265.6080
  43   1.0000      -9.760916      -265.6080
  44   1.0000      -9.712524      -264.2912
  45   1.0000      -9.712524      -264.2912
  46   1.0000      -9.705331      -264.0955
  47   1.0000      -9.705331      -264.0955
  48   1.0000      -9.697066      -263.8706
  49   1.0000      -9.697066      -263.8706
  50   1.0000      -9.693126      -263.7634
  51   1.0000      -9.693126      -263.7634
  52   1.0000      -3.902087      -106.1812
  53   1.0000      -3.902060      -106.1804
  54   1.0000      -2.442855       -66.4735
  55   1.0000      -2.442840       -66.4731
  56   1.0000      -2.441831       -66.4456
  57   1.0000      -2.441814       -66.4451
  58   1.0000      -2.426101       -66.0176
  59   1.0000      -2.425694       -66.0065
  60   1.0000      -1.023745       -27.8575
  61   1.0000      -1.023742       -27.8574
  62   1.0000      -1.019036       -27.7294
  63   1.0000      -1.019030       -27.7292
  64   1.0000      -0.927782       -25.2462
  65   1.0000      -0.927781       -25.2462
  66   1.0000      -0.924753       -25.1638
  67   1.0000      -0.924753       -25.1638
  68   1.0000      -0.918539       -24.9947
  69   1.0000      -0.918539       -24.9947
  70   1.0000      -0.914420       -24.8826
  71   1.0000      -0.914417       -24.8826
  72   1.0000      -0.768227       -20.9045
  73   1.0000      -0.763031       -20.7631
  74   1.0000      -0.761382       -20.7183
  75   1.0000      -0.757942       -20.6246
  76   1.0000      -0.724079       -19.7032
  77   1.0000      -0.724076       -19.7031
  78   1.0000      -0.685018       -18.6403
  79   1.0000      -0.680097       -18.5064
  80   1.0000      -0.679041       -18.4776
  81   1.0000      -0.676593       -18.4110
  82   1.0000      -0.588935       -16.0257
  83   1.0000      -0.588887       -16.0244
  84   1.0000      -0.543263       -14.7829
  85   1.0000      -0.543258       -14.7828
  86   1.0000      -0.478668       -13.0252
  87   1.0000      -0.478664       -13.0251
  88   1.0000      -0.456927       -12.4336
  89   1.0000      -0.455655       -12.3990
  90   1.0000      -0.453031       -12.3276
  91   1.0000      -0.453010       -12.3270
  92   1.0000      -0.440568       -11.9885
  93   1.0000      -0.440545       -11.9878
  94   1.0000      -0.377861       -10.2821
  95   1.0000      -0.375332       -10.2133
  96   1.0000      -0.372121       -10.1259
  97   1.0000      -0.372092       -10.1251
  98   1.0000      -0.359367        -9.7789
  99   1.0000      -0.359334        -9.7780
 100   1.0000      -0.349037        -9.4978
 101   1.0000      -0.348944        -9.4952
 102   1.0000      -0.347055        -9.4439
 103   1.0000      -0.347047        -9.4436
 104   1.0000      -0.346737        -9.4352
 105   1.0000      -0.346653        -9.4329
 106   1.0000      -0.341882        -9.3031
 107   1.0000      -0.341702        -9.2982
 108   1.0000      -0.333445        -9.0735
 109   1.0000      -0.333398        -9.0722
 110   1.0000      -0.274734        -7.4759
 111   1.0000      -0.274678        -7.4744
 112   1.0000      -0.251888        -6.8542
 113   1.0000      -0.248330        -6.7574
 114   1.0000      -0.248322        -6.7572
 115   1.0000      -0.239395        -6.5143
 116   1.0000      -0.234778        -6.3886
 117   1.0000      -0.234239        -6.3740
 118   1.0000      -0.233122        -6.3436
 119   1.0000      -0.232317        -6.3217
 120   1.0000      -0.229549        -6.2463
 121   1.0000      -0.223165        -6.0726
 122   1.0000      -0.222322        -6.0497
 123   1.0000      -0.221010        -6.0140
 124   1.0000      -0.220211        -5.9922
 125   1.0000      -0.219327        -5.9682
 126   1.0000      -0.218909        -5.9568
 127   1.0000      -0.217919        -5.9299
 128   1.0000      -0.216633        -5.8949
 129   1.0000      -0.204429        -5.5628
 130   1.0000      -0.203843        -5.5469
 131   1.0000      -0.201871        -5.4932
 132   1.0000      -0.201752        -5.4900
 133   1.0000      -0.201074        -5.4715
 134   1.0000      -0.200831        -5.4649
 135   1.0000      -0.198263        -5.3950
 136   1.0000      -0.195819        -5.3285
 137   1.0000      -0.193148        -5.2558
 138   1.0000      -0.192792        -5.2461
 139   1.0000      -0.192582        -5.2404
 140   1.0000      -0.189259        -5.1500
 141   1.0000      -0.185788        -5.0555
 142   1.0000      -0.178288        -4.8515
 143   1.0000      -0.177984        -4.8432
 144   1.0000      -0.175809        -4.7840
 145   1.0000      -0.173859        -4.7309
 146   1.0000      -0.172831        -4.7030
 147   1.0000      -0.171439        -4.6651
 148   1.0000      -0.170180        -4.6308
 149   1.0000      -0.170086        -4.6283
 150   1.0000      -0.169264        -4.6059
 151   1.0000      -0.168035        -4.5725
 152   1.0000      -0.164584        -4.4786
 153   1.0000      -0.157613        -4.2889
 154   1.0000      -0.155330        -4.2267
 155   1.0000      -0.155309        -4.2262
 156   1.0000      -0.154088        -4.1930
 157   1.0000      -0.152903        -4.1607
 158   1.0000      -0.152606        -4.1526
 159   1.0000      -0.152406        -4.1472
 160   1.0000      -0.151978        -4.1355
 161   1.0000      -0.141594        -3.8530
 162   1.0000      -0.140296        -3.8176
 163   1.0000      -0.140187        -3.8147
 164   1.0000      -0.121573        -3.3082
 165   1.0000      -0.121501        -3.3062
 166   1.0000      -0.097269        -2.6468
 167   1.0000      -0.094570        -2.5734
 168   1.0000      -0.082149        -2.2354
 169   1.0000      -0.080730        -2.1968
 170   1.0000      -0.069964        -1.9038
 171   1.0000      -0.065751        -1.7892
 172   1.0000      -0.065723        -1.7884
 173   1.0000      -0.052547        -1.4299
 174   1.0000      -0.050395        -1.3713
 175   1.0000      -0.049919        -1.3584
 176   1.0000      -0.046237        -1.2582
 177   1.0000      -0.042942        -1.1685
 178   1.0000      -0.041651        -1.1334
 179   1.0000      -0.034570        -0.9407
 180   1.0000      -0.031503        -0.8572
 181   1.0000      -0.019750        -0.5374
 182   1.0000      -0.006253        -0.1702
 183   1.0000      -0.005544        -0.1508
 184   1.0000       0.003023         0.0823
 185   1.0000       0.005317         0.1447
 186   1.0000       0.009858         0.2683
 187   1.0000       0.010035         0.2731
 188   1.0000       0.021045         0.5727
 189   1.0000       0.024785         0.6744
 190   1.0000       0.027185         0.7397
 191   1.0000       0.033131         0.9016
 192   1.0000       0.058315         1.5868
 193   1.0000       0.071944         1.9577
 194   1.0000       0.073491         1.9998
 195   1.0000       0.076660         2.0860
 196   1.0000       0.079786         2.1711
 197   0.0000       0.179786         4.8922
 198   0.0000       0.273357         7.4384
 199   0.0000       0.273698         7.4477
 200   0.0000       0.278835         7.5875
 201   0.0000       0.289069         7.8660

                 SPIN DOWN ORBITALS
  NO   OCC          E(Eh)            E(eV)
   0   1.0000    -321.436492     -8746.7316
   1   1.0000    -321.436414     -8746.7295
   2   1.0000     -38.123826     -1037.4020
   3   1.0000     -38.123726     -1037.3993
   4   1.0000     -33.431092      -909.7062
   5   1.0000     -33.430994      -909.7036
   6   1.0000     -33.427657      -909.6128
   7   1.0000     -33.427635      -909.6122
   8   1.0000     -33.427296      -909.6030
   9   1.0000     -33.427276      -909.6024
  10   1.0000     -24.126902      -656.5264
  11   1.0000     -24.126901      -656.5264
  12   1.0000     -24.126561      -656.5171
  13   1.0000     -24.126560      -656.5171
  14   1.0000     -24.125378      -656.4849
  15   1.0000     -24.125377      -656.4849
  16   1.0000     -24.125089      -656.4770
  17   1.0000     -24.125086      -656.4770
  18   1.0000     -24.121432      -656.3775
  19   1.0000     -24.121429      -656.3775
  20   1.0000     -24.115746      -656.2228
  21   1.0000     -24.115746      -656.2228
  22   1.0000     -18.564656      -505.1700
  23   1.0000     -18.564656      -505.1700
  24   1.0000     -18.553092      -504.8553
  25   1.0000     -18.553069      -504.8547
  26   1.0000     -18.551850      -504.8215
  27   1.0000     -18.551828      -504.8209
  28   1.0000     -18.551587      -504.8143
  29   1.0000     -18.551564      -504.8137
  30   1.0000     -18.550978      -504.7978
  31   1.0000     -18.550956      -504.7972
  32   1.0000     -18.477489      -502.7980
  33   1.0000     -18.477486      -502.7979
  34   1.0000      -9.936409      -270.3834
  35   1.0000      -9.936404      -270.3833
  36   1.0000      -9.935116      -270.3483
  37   1.0000      -9.935111      -270.3481
  38   1.0000      -9.804352      -266.7900
  39   1.0000      -9.804348      -266.7899
  40   1.0000      -9.803132      -266.7568
  41   1.0000      -9.803130      -266.7567
  42   1.0000      -9.760916      -265.6080
  43   1.0000      -9.760916      -265.6080
  44   1.0000      -9.712521      -264.2911
  45   1.0000      -9.712520      -264.2911
  46   1.0000      -9.705332      -264.0955
  47   1.0000      -9.705332      -264.0955
  48   1.0000      -9.696920      -263.8666
  49   1.0000      -9.696919      -263.8666
  50   1.0000      -9.693127      -263.7634
  51   1.0000      -9.693127      -263.7634
  52   1.0000      -3.893996      -105.9610
  53   1.0000      -3.893967      -105.9602
  54   1.0000      -2.433613       -66.2220
  55   1.0000      -2.433247       -66.2120
  56   1.0000      -2.427574       -66.0576
  57   1.0000      -2.427570       -66.0575
  58   1.0000      -2.425927       -66.0128
  59   1.0000      -2.425918       -66.0126
  60   1.0000      -1.023637       -27.8546
  61   1.0000      -1.023635       -27.8545
  62   1.0000      -1.018929       -27.7265
  63   1.0000      -1.018923       -27.7263
  64   1.0000      -0.927731       -25.2448
  65   1.0000      -0.927730       -25.2448
  66   1.0000      -0.924682       -25.1619
  67   1.0000      -0.924681       -25.1619
  68   1.0000      -0.918468       -24.9928
  69   1.0000      -0.918468       -24.9928
  70   1.0000      -0.914372       -24.8813
  71   1.0000      -0.914370       -24.8813
  72   1.0000      -0.766891       -20.8682
  73   1.0000      -0.761666       -20.7260
  74   1.0000      -0.760054       -20.6821
  75   1.0000      -0.756567       -20.5872
  76   1.0000      -0.724169       -19.7056
  77   1.0000      -0.724166       -19.7056
  78   1.0000      -0.683327       -18.5943
  79   1.0000      -0.678368       -18.4593
  80   1.0000      -0.677344       -18.4315
  81   1.0000      -0.674835       -18.3632
  82   1.0000      -0.599264       -16.3068
  83   1.0000      -0.599211       -16.3054
  84   1.0000      -0.543982       -14.8025
  85   1.0000      -0.543979       -14.8024
  86   1.0000      -0.478759       -13.0277
  87   1.0000      -0.478755       -13.0276
  88   1.0000      -0.456201       -12.4139
  89   1.0000      -0.454956       -12.3800
  90   1.0000      -0.452323       -12.3083
  91   1.0000      -0.452320       -12.3083
  92   1.0000      -0.442921       -12.0525
  93   1.0000      -0.442895       -12.0518
  94   1.0000      -0.377272       -10.2661
  95   1.0000      -0.374725       -10.1968
  96   1.0000      -0.371505       -10.1092
  97   1.0000      -0.371446       -10.1076
  98   1.0000      -0.359817        -9.7911
  99   1.0000      -0.359784        -9.7902
 100   1.0000      -0.348870        -9.4932
 101   1.0000      -0.348783        -9.4909
 102   1.0000      -0.346881        -9.4391
 103   1.0000      -0.346872        -9.4389
 104   1.0000      -0.346560        -9.4304
 105   1.0000      -0.346479        -9.4282
 106   1.0000      -0.341716        -9.2986
 107   1.0000      -0.341543        -9.2939
 108   1.0000      -0.335387        -9.1263
 109   1.0000      -0.335342        -9.1251
 110   1.0000      -0.274978        -7.4825
 111   1.0000      -0.274928        -7.4812
 112   1.0000      -0.250957        -6.8289
 113   1.0000      -0.248359        -6.7582
 114   1.0000      -0.248347        -6.7579
 115   1.0000      -0.238994        -6.5034
 116   1.0000      -0.234407        -6.3785
 117   1.0000      -0.232865        -6.3366
 118   1.0000      -0.231805        -6.3077
 119   1.0000      -0.230622        -6.2755
 120   1.0000      -0.229109        -6.2344
 121   1.0000      -0.222970        -6.0673
 122   1.0000      -0.222007        -6.0411
 123   1.0000      -0.220932        -6.0119
 124   1.0000      -0.220153        -5.9907
 125   1.0000      -0.219202        -5.9648
 126   1.0000      -0.218794        -5.9537
 127   1.0000      -0.217759        -5.9255
 128   1.0000      -0.216387        -5.8882
 129   1.0000      -0.203934        -5.5493
 130   1.0000      -0.202218        -5.5026
 131   1.0000      -0.201714        -5.4889
 132   1.0000      -0.200680        -5.4608
 133   1.0000      -0.199629        -5.4322
 134   1.0000      -0.199193        -5.4203
 135   1.0000      -0.198615        -5.4046
 136   1.0000      -0.195448        -5.3184
 137   1.0000      -0.193441        -5.2638
 138   1.0000      -0.192610        -5.2412
 139   1.0000      -0.192594        -5.2407
 140   1.0000      -0.189064        -5.1447
 141   1.0000      -0.185689        -5.0528
 142   1.0000      -0.177983        -4.8432
 143   1.0000      -0.177444        -4.8285
 144   1.0000      -0.175416        -4.7733
 145   1.0000      -0.173375        -4.7178
 146   1.0000      -0.172321        -4.6891
 147   1.0000      -0.171198        -4.6585
 148   1.0000      -0.170610        -4.6425
 149   1.0000      -0.170547        -4.6408
 150   1.0000      -0.169000        -4.5987
 151   1.0000      -0.167727        -4.5641
 152   1.0000      -0.164211        -4.4684
 153   1.0000      -0.157328        -4.2811
 154   1.0000      -0.155672        -4.2361
 155   1.0000      -0.155608        -4.2343
 156   1.0000      -0.154609        -4.2071
 157   1.0000      -0.154417        -4.2019
 158   1.0000      -0.153318        -4.1720
 159   1.0000      -0.152416        -4.1474
 160   1.0000      -0.151921        -4.1340
 161   1.0000      -0.141353        -3.8464
 162   1.0000      -0.141072        -3.8388
 163   1.0000      -0.141028        -3.8376
 164   1.0000      -0.121910        -3.3174
 165   1.0000      -0.121827        -3.3151
 166   1.0000      -0.101026        -2.7491
 167   1.0000      -0.098995        -2.6938
 168   1.0000      -0.081073        -2.2061
 169   1.0000      -0.079898        -2.1741
 170   1.0000      -0.066248        -1.8027
 171   1.0000      -0.066227        -1.8021
 172   1.0000      -0.059140        -1.6093
 173   1.0000      -0.049526        -1.3477
 174   1.0000      -0.048984        -1.3329
 175   1.0000      -0.047007        -1.2791
 176   1.0000      -0.044479        -1.2103
 177   1.0000      -0.041117        -1.1188
 178   1.0000      -0.035416        -0.9637
 179   1.0000      -0.032806        -0.8927
 180   1.0000      -0.029861        -0.8126
 181   1.0000      -0.018620        -0.5067
 182   1.0000      -0.008776        -0.2388
 183   1.0000      -0.006365        -0.1732
 184   1.0000      -0.002092        -0.0569
 185   1.0000       0.005699         0.1551
 186   1.0000       0.005884         0.1601
 187   1.0000       0.013719         0.3733
 188   1.0000       0.023873         0.6496
 189   1.0000       0.027994         0.7618
 190   1.0000       0.028796         0.7836
 191   1.0000       0.028919         0.7869
 192   1.0000       0.051169         1.3924
 193   1.0000       0.064183         1.7465
 194   1.0000       0.069916         1.9025
 195   1.0000       0.071768         1.9529
 196   1.0000       0.082239         2.2378
 197   0.0000       0.189923         5.1681
 198   0.0000       0.273794         7.4503
 199   0.0000       0.274147         7.4599
 200   0.0000       0.279246         7.5987
 201   0.0000       0.289570         7.8796

MULLIKEN ATOMIC CHARGES AND SPIN POPULATIONS
--------------------------------------------
   0 Cu:    0.391674    0.168491
   1 O :   -0.273029    0.037798
   2 O :   -0.263836    0.035870
   3 O :   -0.255333    0.038252
   4 O :   -0.295426    0.031801
   5 O :   -0.472517   -0.311482
   6 O :   -0.373524   -0.001185
   7 C :    0.111362   -0.006384
   8 C :    0.376088    0.014710
   9 C :    0.125179   -0.006554
  10 C :    0.363923    0.014499
  11 C :    0.340077    0.012318
  12 H :   -0.094593   -0.019139
  13 H :   -0.076366   -0.010290
  14 C :    0.260473   -0.001149
  15 H :   -0.041863   -0.000939
  16 H :   -0.117795    0.000799
  17 C :    0.071234    0.000106
  18 H :   -0.043004    0.000039
  19 C :    0.173187   -0.000176
  20 H :   -0.044965    0.000105
  21 H :   -0.065380    0.000031
  22 H :   -0.052664    0.000027
  23 C :    0.184234    0.000007
  24 H :    0.000465   -0.000014
  25 H :   -0.053241    0.000002
  26 H :   -0.066594   -0.000016
  27 F :   -0.147930    0.000643
  28 F :   -0.114549    0.000266
  29 F :   -0.136818    0.000323
  30 F :   -0.138480    0.000741
  31 F :   -0.127184    0.000341
  32 F :   -0.142806    0.000162
  33 Cu:    0.391674    0.168490
  34 O :   -0.273029    0.037798
  35 O :   -0.263836    0.035870
  36 O :   -0.255333    0.038252
  37 O :   -0.295426    0.031801
  38 O :   -0.472517   -0.311482
  39 O :   -0.373524   -0.001185
  40 C :    0.111362   -0.006384
  41 C :    0.376088    0.014710
  42 C :    0.125179   -0.006554
  43 C :    0.363923    0.014499
  44 C :    0.340078    0.012319
  45 H :   -0.094593   -0.019139
  46 H :   -0.076366   -0.010290
  47 C :    0.260473   -0.001149
  48 H :   -0.041863   -0.000939
  49 H :   -0.117795    0.000799
  50 C :    0.071234    0.000106
  51 H :   -0.043004    0.000039
  52 C :    0.173187   -0.000176
  53 H :   -0.044965    0.000105
  54 H :   -0.065380    0.000031
  55 H :   -0.052664    0.000027
  56 C :    0.184234    0.000007
  57 H :    0.000465   -0.000014
  58 H :   -0.053241    0.000002
  59 H :   -0.066594   -0.000016
  60 F :   -0.147930    0.000643
  61 F :   -0.114549    0.000266
  62 F :   -0.136818    0.000323
  63 F :   -0.138480    0.000741
  64 F :   -0.127184    0.000341
  65 F :   -0.142806    0.000162
Sum of atomic charges         :   -2.0000000

LOEWDIN ATOMIC CHARGES AND SPIN POPULATIONS
-------------------------------------------
   0 Cu:    0.185688    0.165839
   1 O :   -0.130296    0.035351
   2 O :   -0.127980    0.033604
   3 O :   -0.117157    0.036029
   4 O :   -0.149737    0.029394
   5 O :   -0.331659   -0.304286
   6 O :   -0.159502   -0.001166
   7 C :   -0.054408   -0.000663
   8 C :    0.039114    0.012850
   9 C :   -0.047978   -0.000928
  10 C :    0.043381    0.012693
  11 C :    0.052904   -0.001057
  12 H :   -0.019880   -0.013087
  13 H :   -0.015504   -0.007537
  14 C :    0.069832   -0.000386
  15 H :   -0.008526   -0.000202
  16 H :   -0.037419    0.000389
  17 C :    0.096299   -0.000007
  18 H :   -0.011444   -0.000003
  19 C :   -0.047089   -0.000035
  20 H :    0.001499    0.000081
  21 H :   -0.001726    0.000007
  22 H :    0.000552    0.000009
  23 C :   -0.030148   -0.000018
  24 H :    0.017265    0.000003
  25 H :    0.000570    0.000001
  26 H :   -0.002016   -0.000001
  27 F :   -0.044738    0.000789
  28 F :   -0.020438    0.000372
  29 F :   -0.034596    0.000410
  30 F :   -0.034661    0.000895
  31 F :   -0.031442    0.000432
  32 F :   -0.048760    0.000229
  33 Cu:    0.185688    0.165838
  34 O :   -0.130296    0.035351
  35 O :   -0.127980    0.033604
  36 O :   -0.117156    0.036029
  37 O :   -0.149737    0.029394
  38 O :   -0.331659   -0.304286
  39 O :   -0.159502   -0.001166
  40 C :   -0.054408   -0.000663
  41 C :    0.039114    0.012850
  42 C :   -0.047978   -0.000928
  43 C :    0.043381    0.012693
  44 C :    0.052904   -0.001057
  45 H :   -0.019880   -0.013087
  46 H :   -0.015504   -0.007537
  47 C :    0.069832   -0.000386
  48 H :   -0.008526   -0.000202
  49 H :   -0.037419    0.000389
  50 C :    0.096299   -0.000007
  51 H :   -0.011444   -0.000003
  52 C :   -0.047089   -0.000035
  53 H :    0.001499    0.000081
  54 H :   -0.001726    0.000007
  55 H :    0.000552    0.000009
  56 C :   -0.030148   -0.000018
  57 H :    0.017265    0.000003
  58 H :    0.000570    0.000001
  59 H :   -0.002016   -0.000001
  60 F :   -0.044738    0.000789
  61 F :   -0.020438    0.000372
  62 F :   -0.034596    0.000410
  63 F :   -0.034661    0.000895
  64 F :   -0.031442    0.000432
  65 F :   -0.048760    0.000229

  Mayer bond orders larger than 0.100000
B(  0-Cu,  1-O ) :   0.3814 B(  0-Cu,  2-O ) :   0.3902 B(  0-Cu,  3-O ) :   0.3870
B(  0-Cu,  4-O ) :   0.3959 B(  0-Cu,  5-O ) :   0.4950 B(  0-Cu, 33-Cu) :   0.4451
B(  1-O ,  7-C ) :   1.6010 B(  1-O , 35-O ) :   0.1578 B(  2-O , 34-O ) :   0.1578
B(  2-O , 40-C ) :   1.6243 B(  3-O ,  9-C ) :   1.6386 B(  3-O , 37-O ) :   0.1579
B(  4-O , 36-O ) :   0.1579 B(  4-O , 42-C ) :   1.5693 B(  5-O , 11-C ) :   1.1763
B(  5-O , 38-O ) :   0.1560 B(  6-O , 14-C ) :   0.9834 B(  6-O , 17-C ) :   1.0351
B(  7-C ,  8-C ) :   0.8710 B(  7-C , 35-O ) :   1.6243 B(  8-C , 27-F ) :   1.1425
B(  8-C , 28-F ) :   1.2133 B(  8-C , 29-F ) :   1.1607 B(  9-C , 10-C ) :   0.8723
B(  9-C , 37-O ) :   1.5693 B( 10-C , 30-F ) :   1.1734 B( 10-C , 31-F ) :   1.1956
B( 10-C , 32-F ) :   1.1801 B( 11-C , 12-H ) :   0.8975 B( 11-C , 13-H ) :   0.9022
B( 11-C , 14-C ) :   1.0506 B( 14-C , 15-H ) :   0.9227 B( 14-C , 16-H ) :   0.8922
B( 17-C , 18-H ) :   0.9211 B( 17-C , 19-C ) :   1.0800 B( 17-C , 23-C ) :   1.0793
B( 19-C , 20-H ) :   0.9336 B( 19-C , 21-H ) :   0.9320 B( 19-C , 22-H ) :   0.9363
B( 23-C , 24-H ) :   0.9417 B( 23-C , 25-H ) :   0.9428 B( 23-C , 26-H ) :   0.9377
B( 33-Cu, 34-O ) :   0.3814 B( 33-Cu, 35-O ) :   0.3902 B( 33-Cu, 36-O ) :   0.3870
B( 33-Cu, 37-O ) :   0.3959 B( 33-Cu, 38-O ) :   0.4950 B( 34-O , 40-C ) :   1.6010
B( 36-O , 42-C ) :   1.6386 B( 38-O , 44-C ) :   1.1763 B( 39-O , 47-C ) :   0.9834
B( 39-O , 50-C ) :   1.0351 B( 40-C , 41-C ) :   0.8710 B( 41-C , 60-F ) :   1.1425
B( 41-C , 61-F ) :   1.2133 B( 41-C , 62-F ) :   1.1607 B( 42-C , 43-C ) :   0.8723
B( 43-C , 63-F ) :   1.1734 B( 43-C , 64-F ) :   1.1956 B( 43-C , 65-F ) :   1.1801
B( 44-C , 45-H ) :   0.8975 B( 44-C , 46-H ) :   0.9022 B( 44-C , 47-C ) :   1.0506
B( 47-C , 48-H ) :   0.9227 B( 47-C , 49-H ) :   0.8922 B( 50-C , 51-H ) :   0.9211
B( 50-C , 52-C ) :   1.0800 B( 50-C , 56-C ) :   1.0793 B( 52-C , 53-H ) :   0.9336
B( 52-C , 54-H ) :   0.9320 B( 52-C , 55-H ) :   0.9363 B( 56-C , 57-H ) :   0.9417
B( 56-C , 58-H ) :   0.9428 B( 56-C , 59-H ) :   0.9377

FINAL SINGLE POINT ENERGY     -6078.952521635051

DIPOLE MOMENT
-------------

Method             : SCF
Type of density    : Electron Density
Multiplicity       :   1
Irrep              :   0
Energy             : -6078.9525216350511982 Eh
Basis              : AO
                                X                 Y                 Z
Electronic contribution:      0.000000443      -0.000000155       0.000000204
Nuclear contribution   :      0.000000000      -0.000000000       0.000000000
                        -----------------------------------------
Total Dipole Moment    :      0.000000443      -0.000000155       0.000000204
                        -----------------------------------------
Magnitude (a.u.)       :      0.000000512
Magnitude (Debye)      :      0.000001302

Rotational constants in cm-1:             0.002948             0.001717             0.001580
Rotational constants in MHz :            88.364196            51.471294            47.376530

                             ****ORCA TERMINATED NORMALLY****
TOTAL RUN TIME: 0 days 0 hours 5 minutes 51 seconds 797 msec
