                         Program Version 6.1.0  -  RELEASE   -
|  1> ! UKS B3LYP def2-TZVP RIJCOSX def2/J Opt Freq TightSCF
|  2>
|  3> %pal
|  4>   nprocs 20
|  5> end
|  6> %maxcore 2500
|  7>
|  8> %scf
|  9>   MaxIter   1000
| 10> end
| 11>
| 12> %output
| 13>   Print[P_Mulliken] 1
| 14>   Print[P_Loewdin] 1
| 15>   XYZFile true
| 16> end
| 17>
| 18>
| 19> * xyz 0 1
| 20> C      0.02296308   -1.85996995    0.00000000
| 21> C      0.00798067   -1.16244008    1.20816295
| 22> C     -0.02331454    0.23192082    1.20824560
| 23> C     -0.03844324    0.92941901    0.00000000
| 24> C     -0.02331454    0.23192082   -1.20824560
| 25> C      0.00798067   -1.16244008   -1.20816295
| 26> H      0.04718689   -2.95931340    0.00000000
| 27> H      0.01953870   -1.71237863    2.16035820
| 28> H     -0.03575925    0.78177634   -2.16050635
| 29> H      0.01953870   -1.71237863   -2.16035820
| 30> O     -0.07045338    2.35906064    0.00000000
| 31> H      0.82708134    2.69969202    0.00000000
| 32> Cl    -0.04323187    1.11194551    2.73230591
| 33> *
| 34>
| 35>
| 36>                          ****END OF INPUT****
 Total Charge           Charge          ....    0
 Multiplicity           Mult            ....    1
 Number of Electrons    NEL             ....   66
FINAL SINGLE POINT ENERGY      -766.960710388071
FINAL SINGLE POINT ENERGY      -766.963636116193
FINAL SINGLE POINT ENERGY      -766.964265612325
FINAL SINGLE POINT ENERGY      -766.965720025155
FINAL SINGLE POINT ENERGY      -766.966817564923
FINAL SINGLE POINT ENERGY      -766.965771003948
FINAL SINGLE POINT ENERGY      -766.968610558357
FINAL SINGLE POINT ENERGY      -766.969620505938
FINAL SINGLE POINT ENERGY      -766.970138099708
FINAL SINGLE POINT ENERGY      -766.973094280962
FINAL SINGLE POINT ENERGY      -766.973780620629
FINAL SINGLE POINT ENERGY      -766.973883347100
FINAL SINGLE POINT ENERGY      -766.974029574320
FINAL SINGLE POINT ENERGY      -766.974039789618
                    ***********************HURRAY********************

CARTESIAN COORDINATES (ANGSTROEM)
---------------------------------
  C     -0.029048   -1.857384    0.003384
  C      0.033029   -1.120434    1.178659
  C      0.099997    0.264002    1.116487
  C      0.106560    0.936855   -0.108338
  C      0.043800    0.185062   -1.281167
  C     -0.023391   -1.198631   -1.223304
  H     -0.081504   -2.937003    0.048474
  H      0.029956   -1.608102    2.144141
  H      0.049208    0.712728   -2.226062
  H     -0.071715   -1.766735   -2.143603
  O      0.170918    2.286481   -0.207580
  H      0.211525    2.665726    0.682462
  Cl     0.178417    1.214250    2.588247

 Multiplicity           Mult            ....    1
 Number of Electrons    NEL             ....   66
 Basis Dimension        Dim             ....  284

ORBITAL ENERGIES
----------------
                 SPIN UP ORBITALS
  NO   OCC          E(Eh)            E(eV)
   0   1.0000    -101.539753     -2763.0372
   1   1.0000     -19.165417      -521.5175
   2   1.0000     -10.250702      -278.9358
   3   1.0000     -10.237521      -278.5771
   4   1.0000     -10.190761      -277.3047
   5   1.0000     -10.184470      -277.1335
   6   1.0000     -10.181162      -277.0435
   7   1.0000     -10.179734      -277.0047
   8   1.0000      -9.471714      -257.7384
   9   1.0000      -7.232995      -196.8198
  10   1.0000      -7.224851      -196.5982
  11   1.0000      -7.224693      -196.5939
  12   1.0000      -1.076277       -29.2870
  13   1.0000      -0.894847       -24.3500
  14   1.0000      -0.846169       -23.0254
  15   1.0000      -0.758610       -20.6428
  16   1.0000      -0.738994       -20.1090
  17   1.0000      -0.629261       -17.1231
  18   1.0000      -0.621537       -16.9129
  19   1.0000      -0.557330       -15.1657
  20   1.0000      -0.513192       -13.9647
  21   1.0000      -0.483291       -13.1510
  22   1.0000      -0.454317       -12.3626
  23   1.0000      -0.438585       -11.9345
  24   1.0000      -0.435617       -11.8537
  25   1.0000      -0.406251       -11.0546
  26   1.0000      -0.384253       -10.4561
  27   1.0000      -0.367769       -10.0075
  28   1.0000      -0.359195        -9.7742
  29   1.0000      -0.342206        -9.3119
  30   1.0000      -0.332498        -9.0477
  31   1.0000      -0.260955        -7.1009
  32   1.0000      -0.237016        -6.4495
  33   0.0000      -0.025362        -0.6901
  34   0.0000      -0.008890        -0.2419
  35   0.0000       0.013179         0.3586
  36   0.0000       0.045193         1.2298
  37   0.0000       0.062437         1.6990

                 SPIN DOWN ORBITALS
  NO   OCC          E(Eh)            E(eV)
   0   1.0000    -101.539753     -2763.0372
   1   1.0000     -19.165417      -521.5175
   2   1.0000     -10.250702      -278.9358
   3   1.0000     -10.237521      -278.5771
   4   1.0000     -10.190761      -277.3047
   5   1.0000     -10.184470      -277.1335
   6   1.0000     -10.181162      -277.0435
   7   1.0000     -10.179734      -277.0047
   8   1.0000      -9.471714      -257.7384
   9   1.0000      -7.232995      -196.8198
  10   1.0000      -7.224851      -196.5982
  11   1.0000      -7.224693      -196.5939
  12   1.0000      -1.076277       -29.2870
  13   1.0000      -0.894847       -24.3500
  14   1.0000      -0.846169       -23.0254
  15   1.0000      -0.758610       -20.6428
  16   1.0000      -0.738994       -20.1090
  17   1.0000      -0.629261       -17.1231
  18   1.0000      -0.621537       -16.9129
  19   1.0000      -0.557330       -15.1657
  20   1.0000      -0.513192       -13.9647
  21   1.0000      -0.483291       -13.1510
  22   1.0000      -0.454317       -12.3626
  23   1.0000      -0.438585       -11.9345
  24   1.0000      -0.435617       -11.8537
  25   1.0000      -0.406251       -11.0546
  26   1.0000      -0.384253       -10.4561
  27   1.0000      -0.367769       -10.0075
  28   1.0000      -0.359195        -9.7742
  29   1.0000      -0.342206        -9.3119
  30   1.0000      -0.332498        -9.0477
  31   1.0000      -0.260955        -7.1009
  32   1.0000      -0.237016        -6.4495
  33   0.0000      -0.025362        -0.6901
  34   0.0000      -0.008890        -0.2419
  35   0.0000       0.013179         0.3586
  36   0.0000       0.045193         1.2298
  37   0.0000       0.062437         1.6990

MULLIKEN ATOMIC CHARGES AND SPIN POPULATIONS
--------------------------------------------
   0 C :   -0.123010   -0.000000
   1 C :   -0.162771    0.000000
   2 C :    0.127838   -0.000000
   3 C :    0.179176    0.000000
   4 C :   -0.187221   -0.000000
   5 C :   -0.090150    0.000000
   6 H :    0.111041    0.000000
   7 H :    0.124431   -0.000000
   8 H :    0.117729   -0.000000
   9 H :    0.112447    0.000000
  10 O :   -0.378425   -0.000000
  11 H :    0.307872    0.000000
  12 Cl:   -0.138958    0.000000
Sum of atomic charges         :    0.0000000

LOEWDIN ATOMIC CHARGES AND SPIN POPULATIONS
-------------------------------------------
   0 C :   -0.150942   -0.000000
   1 C :   -0.143261    0.000000
   2 C :   -0.405776   -0.000000
   3 C :   -0.283052    0.000000
   4 C :   -0.113564    0.000000
   5 C :   -0.135149   -0.000000
   6 H :    0.143590    0.000000
   7 H :    0.147771   -0.000000
   8 H :    0.150612    0.000000
   9 H :    0.145019    0.000000
  10 O :    0.094624   -0.000000
  11 H :    0.175155    0.000000
  12 Cl:    0.374974    0.000000

  Mayer bond orders larger than 0.100000
B(  0-C ,  1-C ) :   1.4146 B(  0-C ,  5-C ) :   1.4000 B(  0-C ,  6-H ) :   0.9679
B(  1-C ,  2-C ) :   1.3421 B(  1-C ,  7-H ) :   0.9586 B(  2-C ,  3-C ) :   1.2728
B(  2-C , 12-Cl) :   0.9049 B(  3-C ,  4-C ) :   1.3821 B(  3-C , 10-O ) :   1.1991
B(  4-C ,  5-C ) :   1.4348 B(  4-C ,  8-H ) :   0.9655 B(  5-C ,  9-H ) :   0.9698
B( 10-O , 11-H ) :   0.8570

FINAL SINGLE POINT ENERGY      -766.974042314143

DIPOLE MOMENT
-------------

Method             : SCF
Type of density    : Electron Density
Multiplicity       :   1
Irrep              :   0
Energy             :  -766.9740423141429346 Eh
Basis              : AO
                                X                 Y                 Z
Electronic contribution:      0.405484747       5.132215750       7.055988008
Nuclear contribution   :     -0.421208509      -5.477092884      -7.054904570
                        -----------------------------------------
Total Dipole Moment    :     -0.015723762      -0.344877134       0.001083438
                        -----------------------------------------
Magnitude (a.u.)       :      0.345237090
Magnitude (Debye)      :      0.877522944

VIBRATIONAL FREQUENCIES
-----------------------

Scaling factor for frequencies =  1.000000000  (already applied!)

     0:       0.00 cm**-1
     1:       0.00 cm**-1
     2:       0.00 cm**-1
     3:       0.00 cm**-1
     4:       0.00 cm**-1
     5:       0.00 cm**-1
     6:     159.48 cm**-1
     7:     252.59 cm**-1
     8:     265.01 cm**-1
     9:     376.04 cm**-1
    10:     436.55 cm**-1
    11:     455.40 cm**-1
    12:     496.00 cm**-1
    13:     551.60 cm**-1
    14:     565.36 cm**-1
    15:     687.43 cm**-1
    16:     717.94 cm**-1
    17:     760.99 cm**-1
    18:     846.14 cm**-1
    19:     865.93 cm**-1
    20:     939.26 cm**-1
    21:     957.71 cm**-1
    22:    1047.24 cm**-1
    23:    1064.73 cm**-1
    24:    1142.78 cm**-1
    25:    1181.26 cm**-1
    26:    1214.10 cm**-1
    27:    1278.16 cm**-1
    28:    1325.34 cm**-1
    29:    1372.69 cm**-1
    30:    1495.09 cm**-1
    31:    1514.21 cm**-1
    32:    1625.47 cm**-1
    33:    1634.57 cm**-1
    34:    3175.37 cm**-1
    35:    3188.03 cm**-1
    36:    3195.53 cm**-1
    37:    3202.99 cm**-1
    38:    3721.37 cm**-1

IR SPECTRUM
-----------

 Mode   freq       eps      Int      T**2         TX        TY        TZ
       cm**-1   L/(mol*cm) km/mol    a.u.
----------------------------------------------------------------------------
  6:    159.48   0.000000    0.00  0.000001  (-0.000871  0.000028 -0.000011)
  7:    252.59   0.000540    2.73  0.000667  ( 0.001284  0.022994 -0.011695)
  8:    265.01   0.000253    1.28  0.000298  (-0.017211  0.001147  0.000282)
  9:    376.04   0.000421    2.13  0.000349  (-0.000272 -0.008678  0.016543)
 10:    436.55   0.016962   85.72  0.012125  ( 0.109955 -0.005319 -0.002613)
 11:    455.40   0.001434    7.25  0.000983  (-0.031313  0.001300  0.000820)
 12:    496.00   0.002206   11.15  0.001388  (-0.001405 -0.036753 -0.005941)
 13:    551.60   0.000173    0.88  0.000098  (-0.009883  0.000510  0.000188)
 14:    565.36   0.000822    4.16  0.000454  (-0.001128 -0.018706 -0.010138)
 15:    687.43   0.004463   22.55  0.002026  ( 0.002166  0.030393  0.033129)
 16:    717.94   0.000005    0.02  0.000002  (-0.001440  0.000164  0.000044)
 17:    760.99   0.013711   69.29  0.005623  (-0.074874  0.003720  0.001667)
 18:    846.14   0.002352   11.89  0.000867  (-0.001069 -0.026295  0.013222)
 19:    865.93   0.000222    1.12  0.000080  (-0.008928  0.000380  0.000223)
 20:    939.26   0.000591    2.99  0.000196  ( 0.013991 -0.000681 -0.000218)
 21:    957.71   0.000039    0.20  0.000013  (-0.003567  0.000164  0.000120)
 22:   1047.24   0.007503   37.92  0.002236  (-0.002465 -0.039069 -0.026520)
 23:   1064.73   0.002677   13.53  0.000785  ( 0.000955  0.008267  0.026748)
 24:   1142.78   0.000822    4.15  0.000224  (-0.000702 -0.008994 -0.011960)
 25:   1181.26   0.000672    3.40  0.000178  (-0.000094 -0.006864  0.011419)
 26:   1214.10   0.024209  122.34  0.006222  (-0.002617 -0.069719  0.036809)
 27:   1278.16   0.013156   66.48  0.003212  (-0.002520 -0.055655  0.010396)
 28:   1325.34   0.006824   34.49  0.001607  (-0.002155 -0.037430 -0.014183)
 29:   1372.69   0.004537   22.93  0.001031  (-0.001267 -0.030396  0.010285)
 30:   1495.09   0.000611    3.09  0.000127  ( 0.000135 -0.002337  0.011045)
 31:   1514.21   0.025436  128.54  0.005242  ( 0.003722  0.071816  0.008412)
 32:   1625.47   0.003626   18.33  0.000696  (-0.001201 -0.026089  0.003764)
 33:   1634.57   0.005735   28.98  0.001095  (-0.001393 -0.031920  0.008612)
 34:   3175.37   0.000389    1.97  0.000038  (-0.000227 -0.002174 -0.005784)
 35:   3188.03   0.001118    5.65  0.000109  (-0.000549 -0.010079 -0.002748)
 36:   3195.53   0.001100    5.56  0.000107  ( 0.000121 -0.002076  0.010152)
 37:   3202.99   0.000980    4.95  0.000095  ( 0.000504  0.009483  0.002304)
 38:   3721.37   0.016502   83.39  0.001384  (-0.001812 -0.022374 -0.029663)

--------------------------
THERMOCHEMISTRY AT 298.15K
--------------------------

Temperature         ...   298.15 K
Pressure            ...     1.00 atm
Total Mass          ...   128.56 AMU
Quasi RRHO          ...     True
Cut-Off Frequency   ...     1.00 cm^-1

Throughout the following assumptions are being made:
  (1) The electronic state is orbitally nondegenerate
  (2) There are no thermally accessible electronically excited states
  (3) Hindered rotations indicated by low frequency modes are not
      treated as such but are treated as vibrations and this may
      cause some error
  (4) All equations used are the standard statistical mechanics
      equations for an ideal gas
  (5) All vibrations are strictly harmonic

freq.     159.48  E(vib)   ...       0.39
freq.     252.59  E(vib)   ...       0.30
freq.     265.01  E(vib)   ...       0.29
freq.     376.04  E(vib)   ...       0.21
freq.     436.55  E(vib)   ...       0.17
freq.     455.40  E(vib)   ...       0.16
freq.     496.00  E(vib)   ...       0.14
freq.     551.60  E(vib)   ...       0.12
freq.     565.36  E(vib)   ...       0.11
freq.     687.43  E(vib)   ...       0.07
freq.     717.94  E(vib)   ...       0.07
freq.     760.99  E(vib)   ...       0.06
freq.     846.14  E(vib)   ...       0.04
freq.     865.93  E(vib)   ...       0.04
freq.     939.26  E(vib)   ...       0.03
freq.     957.71  E(vib)   ...       0.03
freq.    1047.24  E(vib)   ...       0.02
freq.    1064.73  E(vib)   ...       0.02
freq.    1142.78  E(vib)   ...       0.01
freq.    1181.26  E(vib)   ...       0.01
freq.    1214.10  E(vib)   ...       0.01
freq.    1278.16  E(vib)   ...       0.01
freq.    1325.34  E(vib)   ...       0.01
freq.    1372.69  E(vib)   ...       0.01
freq.    1495.09  E(vib)   ...       0.00
freq.    1514.21  E(vib)   ...       0.00
freq.    1625.47  E(vib)   ...       0.00
freq.    1634.57  E(vib)   ...       0.00
freq.    3175.37  E(vib)   ...       0.00
freq.    3188.03  E(vib)   ...       0.00
freq.    3195.53  E(vib)   ...       0.00
freq.    3202.99  E(vib)   ...       0.00
freq.    3721.37  E(vib)   ...       0.00

------------
INNER ENERGY
------------

The inner energy is: U= E(el) + E(ZPE) + E(vib) + E(rot) + E(trans)
    E(el)   - is the total energy from the electronic structure calculation
              = E(kin-el) + E(nuc-el) + E(el-el) + E(nuc-nuc)
    E(ZPE)  - the the zero temperature vibrational energy from the frequency calculation
    E(vib)  - the the finite temperature correction to E(ZPE) due to population
              of excited vibrational states
    E(rot)  - is the rotational thermal energy
    E(trans)- is the translational thermal energy

Summary of contributions to the inner energy U:
Electronic energy                ...   -766.97404231 Eh
Zero point energy                ...      0.09502773 Eh      59.63 kcal/mol
Thermal vibrational correction   ...      0.00373126 Eh       2.34 kcal/mol
Thermal rotational correction    ...      0.00141627 Eh       0.89 kcal/mol
Thermal translational correction ...      0.00141627 Eh       0.89 kcal/mol
-----------------------------------------------------------------------
Total thermal energy                   -766.87245078 Eh

Summary of corrections to the electronic energy:
(perhaps to be used in another calculation)
Total thermal correction                  0.00656380 Eh       4.12 kcal/mol
Non-thermal (ZPE) correction              0.09502773 Eh      59.63 kcal/mol
-----------------------------------------------------------------------
Total correction                          0.10159153 Eh      63.75 kcal/mol

--------
ENTHALPY
--------

The enthalpy is H = U + kB*T
                kB is Boltzmann's constant
Total thermal energy              ...   -766.87245078 Eh
Thermal Enthalpy correction       ...      0.00094421 Eh       0.59 kcal/mol
-----------------------------------------------------------------------
Total Enthalpy                    ...   -766.87150657 Eh

Note: Only C1 symmetry has been detected, increase convergence thresholds
      if your molecule has a higher symmetry. Symmetry factor of 1.0 is
      used for the rotational entropy correction.

Note: Rotational entropy computed according to Herzberg
Infrared and Raman Spectra, Chapter V,1, Van Nostrand Reinhold, 1945
Point Group:  C1, Symmetry Number:   1
Rotational constants in cm-1:     0.099746     0.051150     0.033811

Vibrational entropy computed according to the QRRHO of S. Grimme
Chem.Eur.J. 2012 18 9955 using a reference frequency of 100.0 cm-1

-------
ENTROPY
-------

The entropy contributions are T*S = T*(S(el)+S(vib)+S(rot)+S(trans))
     S(el)   - electronic entropy
     S(vib)  - vibrational entropy
     S(rot)  - rotational entropy
     S(trans)- translational entropy
The entropies will be listed as multiplied by the temperature to get
units of energy

Electronic entropy                ...      0.00000000 Eh      0.00 kcal/mol
Vibrational entropy               ...      0.00574756 Eh      3.61 kcal/mol
Rotational entropy                ...      0.01360152 Eh      8.54 kcal/mol
Translational entropy             ...      0.01922702 Eh     12.07 kcal/mol
-----------------------------------------------------------------------
Final entropy term                ...      0.03857611 Eh     24.21 kcal/mol

In case the symmetry of your molecule has not been determined correctly
or in case you have a reason to use a different symmetry number we print
out the resulting rotational entropy values for sn=1,12:

 non-linear molecules -----------------------------------
|  sn= 1 | S(rot)=       0.01360152 Eh      8.54 kcal/mol|
|  sn= 2 | S(rot)=       0.01294706 Eh      8.12 kcal/mol|
|  sn= 3 | S(rot)=       0.01256423 Eh      7.88 kcal/mol|
|  sn= 4 | S(rot)=       0.01229261 Eh      7.71 kcal/mol|
|  sn= 5 | S(rot)=       0.01208192 Eh      7.58 kcal/mol|
|  sn= 6 | S(rot)=       0.01190977 Eh      7.47 kcal/mol|
|  sn= 7 | S(rot)=       0.01176423 Eh      7.38 kcal/mol|
|  sn= 8 | S(rot)=       0.01163815 Eh      7.30 kcal/mol|
|  sn= 9 | S(rot)=       0.01152694 Eh      7.23 kcal/mol|
|  sn=10 | S(rot)=       0.01142746 Eh      7.17 kcal/mol|
|  sn=11 | S(rot)=       0.01133747 Eh      7.11 kcal/mol|
|  sn=12 | S(rot)=       0.01125532 Eh      7.06 kcal/mol|
 linear molecules ---------------------------------------
|  Dinfh | S(rot)=       0.00852371 Eh      5.35 kcal/mol|
|  Cinfv | S(rot)=       0.00917817 Eh      5.76 kcal/mol|
 --------------------------------------------------------

-------------------
GIBBS FREE ENERGY
-------------------

The Gibbs free energy is G = H - T*S

Total enthalpy                    ...   -766.87150657 Eh
Total entropy correction          ...     -0.03857611 Eh    -24.21 kcal/mol
-----------------------------------------------------------------------

                             ****ORCA TERMINATED NORMALLY****
TOTAL RUN TIME: 0 days 0 hours 4 minutes 48 seconds 687 msec
