                         Program Version 6.1.0  -  RELEASE   -
|  1> ! UKS B3LYP def2-TZVP RIJCOSX def2/J Opt Freq TightSCF CPCM(Water)
|  2>
|  3> %pal
|  4>   nprocs 20
|  5> end
|  6> %maxcore 2500
|  7>
|  8> %scf
|  9>   MaxIter   1000
| 10> end
| 11>
| 12> %output
| 13>   Print[P_Mulliken] 1
| 14>   Print[P_Loewdin] 1
| 15>   XYZFile true
| 16> end
| 17>
| 18>
| 19> * xyz 0 1
| 20> C      0.02296308   -1.85996995    0.00000000
| 21> C      0.00798067   -1.16244008    1.20816295
| 22> C     -0.02331454    0.23192082    1.20824560
| 23> C     -0.03844324    0.92941901    0.00000000
| 24> C     -0.02331454    0.23192082   -1.20824560
| 25> C      0.00798067   -1.16244008   -1.20816295
| 26> H      0.04718689   -2.95931340    0.00000000
| 27> H      0.01953870   -1.71237863    2.16035820
| 28> H     -0.03575925    0.78177634   -2.16050635
| 29> H      0.01953870   -1.71237863   -2.16035820
| 30> O     -0.07045338    2.35906064    0.00000000
| 31> H      0.82708134    2.69969202    0.00000000
| 32> Cl    -0.04323187    1.11194551    2.73230591
| 33> *
| 34>
| 35>
| 36>                          ****END OF INPUT****
 Total Charge           Charge          ....    0
 Multiplicity           Mult            ....    1
 Number of Electrons    NEL             ....   66
FINAL SINGLE POINT ENERGY      -766.970846793429
FINAL SINGLE POINT ENERGY      -766.973438480180
FINAL SINGLE POINT ENERGY      -766.973732764129
FINAL SINGLE POINT ENERGY      -766.973914630041
FINAL SINGLE POINT ENERGY      -766.974139942433
FINAL SINGLE POINT ENERGY      -766.975017024023
FINAL SINGLE POINT ENERGY      -766.976112350269
FINAL SINGLE POINT ENERGY      -766.977189298671
FINAL SINGLE POINT ENERGY      -766.978521068208
FINAL SINGLE POINT ENERGY      -766.978971574829
FINAL SINGLE POINT ENERGY      -766.979384252552
FINAL SINGLE POINT ENERGY      -766.979939539185
FINAL SINGLE POINT ENERGY      -766.980574083062
FINAL SINGLE POINT ENERGY      -766.980897699124
FINAL SINGLE POINT ENERGY      -766.980911695026
FINAL SINGLE POINT ENERGY      -766.980914518139
FINAL SINGLE POINT ENERGY      -766.980917653913
                    ***********************HURRAY********************

CARTESIAN COORDINATES (ANGSTROEM)
---------------------------------
  C     -0.029450   -1.859210    0.003602
  C      0.033156   -1.121858    1.179995
  C      0.100438    0.263582    1.119089
  C      0.106940    0.937330   -0.106071
  C      0.043565    0.185363   -1.279646
  C     -0.024050   -1.199841   -1.223718
  H     -0.082177   -2.939042    0.049249
  H      0.030085   -1.613077    2.144050
  H      0.048471    0.708378   -2.227874
  H     -0.072776   -1.766635   -2.144988
  O      0.171590    2.288294   -0.210317
  H      0.212835    2.686921    0.672809
  Cl     0.179126    1.206612    2.595619

 Multiplicity           Mult            ....    1
 Number of Electrons    NEL             ....   66
 Basis Dimension        Dim             ....  284

ORBITAL ENERGIES
----------------
                 SPIN UP ORBITALS
  NO   OCC          E(Eh)            E(eV)
   0   1.0000    -101.537062     -2762.9639
   1   1.0000     -19.164348      -521.4884
   2   1.0000     -10.249688      -278.9082
   3   1.0000     -10.235807      -278.5305
   4   1.0000     -10.186831      -277.1978
   5   1.0000     -10.180434      -277.0237
   6   1.0000     -10.178412      -276.9687
   7   1.0000     -10.175469      -276.8886
   8   1.0000      -9.469036      -257.6656
   9   1.0000      -7.230337      -196.7475
  10   1.0000      -7.222091      -196.5231
  11   1.0000      -7.222077      -196.5227
  12   1.0000      -1.073478       -29.2108
  13   1.0000      -0.892393       -24.2832
  14   1.0000      -0.843164       -22.9437
  15   1.0000      -0.755440       -20.5566
  16   1.0000      -0.735975       -20.0269
  17   1.0000      -0.625978       -17.0337
  18   1.0000      -0.618213       -16.8224
  19   1.0000      -0.553549       -15.0628
  20   1.0000      -0.508657       -13.8413
  21   1.0000      -0.479790       -13.0557
  22   1.0000      -0.449708       -12.2372
  23   1.0000      -0.434843       -11.8327
  24   1.0000      -0.434140       -11.8136
  25   1.0000      -0.404013       -10.9938
  26   1.0000      -0.379347       -10.3226
  27   1.0000      -0.367157        -9.9909
  28   1.0000      -0.355441        -9.6721
  29   1.0000      -0.340579        -9.2676
  30   1.0000      -0.328871        -8.9490
  31   1.0000      -0.259271        -7.0551
  32   1.0000      -0.236210        -6.4276
  33   0.0000      -0.023744        -0.6461
  34   0.0000      -0.007619        -0.2073
  35   0.0000       0.017310         0.4710
  36   0.0000       0.055567         1.5121
  37   0.0000       0.073530         2.0008

                 SPIN DOWN ORBITALS
  NO   OCC          E(Eh)            E(eV)
   0   1.0000    -101.537062     -2762.9639
   1   1.0000     -19.164348      -521.4884
   2   1.0000     -10.249688      -278.9082
   3   1.0000     -10.235807      -278.5305
   4   1.0000     -10.186831      -277.1978
   5   1.0000     -10.180434      -277.0237
   6   1.0000     -10.178412      -276.9687
   7   1.0000     -10.175469      -276.8886
   8   1.0000      -9.469036      -257.6656
   9   1.0000      -7.230337      -196.7475
  10   1.0000      -7.222091      -196.5231
  11   1.0000      -7.222077      -196.5227
  12   1.0000      -1.073478       -29.2108
  13   1.0000      -0.892393       -24.2832
  14   1.0000      -0.843164       -22.9437
  15   1.0000      -0.755440       -20.5566
  16   1.0000      -0.735975       -20.0269
  17   1.0000      -0.625978       -17.0337
  18   1.0000      -0.618213       -16.8224
  19   1.0000      -0.553549       -15.0628
  20   1.0000      -0.508657       -13.8413
  21   1.0000      -0.479790       -13.0557
  22   1.0000      -0.449708       -12.2372
  23   1.0000      -0.434843       -11.8327
  24   1.0000      -0.434140       -11.8136
  25   1.0000      -0.404013       -10.9938
  26   1.0000      -0.379347       -10.3226
  27   1.0000      -0.367157        -9.9909
  28   1.0000      -0.355441        -9.6721
  29   1.0000      -0.340579        -9.2676
  30   1.0000      -0.328871        -8.9490
  31   1.0000      -0.259271        -7.0551
  32   1.0000      -0.236210        -6.4276
  33   0.0000      -0.023744        -0.6461
  34   0.0000      -0.007619        -0.2073
  35   0.0000       0.017310         0.4710
  36   0.0000       0.055567         1.5121
  37   0.0000       0.073530         2.0008

MULLIKEN ATOMIC CHARGES AND SPIN POPULATIONS
--------------------------------------------
   0 C :   -0.160611    0.000000
   1 C :   -0.184154   -0.000000
   2 C :    0.111274    0.000000
   3 C :    0.199932   -0.000000
   4 C :   -0.218340    0.000000
   5 C :   -0.127108   -0.000000
   6 H :    0.145806    0.000000
   7 H :    0.154793   -0.000000
   8 H :    0.142365    0.000000
   9 H :    0.147016   -0.000000
  10 O :   -0.416382    0.000000
  11 H :    0.345351    0.000000
  12 Cl:   -0.139942    0.000000
Sum of atomic charges         :   -0.0000000

LOEWDIN ATOMIC CHARGES AND SPIN POPULATIONS
-------------------------------------------
   0 C :   -0.154173    0.000000
   1 C :   -0.144831   -0.000000
   2 C :   -0.409966    0.000000
   3 C :   -0.287801   -0.000000
   4 C :   -0.121168    0.000000
   5 C :   -0.138455    0.000000
   6 H :    0.151237   -0.000000
   7 H :    0.155390    0.000000
   8 H :    0.155890   -0.000000
   9 H :    0.152758   -0.000000
  10 O :    0.080467    0.000000
  11 H :    0.189622    0.000000
  12 Cl:    0.371029   -0.000000

  Mayer bond orders larger than 0.100000
B(  0-C ,  1-C ) :   1.4000 B(  0-C ,  5-C ) :   1.3823 B(  0-C ,  6-H ) :   0.9714
B(  1-C ,  2-C ) :   1.3184 B(  1-C ,  7-H ) :   0.9621 B(  2-C ,  3-C ) :   1.2667
B(  2-C , 12-Cl) :   0.9355 B(  3-C ,  4-C ) :   1.3562 B(  3-C , 10-O ) :   1.1872
B(  4-C ,  5-C ) :   1.4225 B(  4-C ,  8-H ) :   0.9729 B(  5-C ,  9-H ) :   0.9723
B( 10-O , 11-H ) :   0.8403

FINAL SINGLE POINT ENERGY      -766.980914658550

DIPOLE MOMENT
-------------

Method             : SCF
Type of density    : Electron Density
Multiplicity       :   1
Irrep              :   0
Energy             :  -766.9809146585503186 Eh
Basis              : AO
                                X                 Y                 Z
Electronic contribution:      0.404563031       5.025910291       7.095042633
Nuclear contribution   :     -0.423921506      -5.450143520      -7.083989479
                        -----------------------------------------
Total Dipole Moment    :     -0.019358475      -0.424233229       0.011053154
                        -----------------------------------------
Magnitude (a.u.)       :      0.424818497
Magnitude (Debye)      :      1.079802806

VIBRATIONAL FREQUENCIES
-----------------------

Scaling factor for frequencies =  1.000000000  (already applied!)

     0:       0.00 cm**-1
     1:       0.00 cm**-1
     2:       0.00 cm**-1
     3:       0.00 cm**-1
     4:       0.00 cm**-1
     5:       0.00 cm**-1
     6:     157.02 cm**-1
     7:     249.26 cm**-1
     8:     265.10 cm**-1
     9:     374.66 cm**-1
    10:     381.31 cm**-1
    11:     453.06 cm**-1
    12:     496.29 cm**-1
    13:     554.88 cm**-1
    14:     564.49 cm**-1
    15:     682.53 cm**-1
    16:     725.98 cm**-1
    17:     761.12 cm**-1
    18:     841.99 cm**-1
    19:     867.82 cm**-1
    20:     953.52 cm**-1
    21:     979.82 cm**-1
    22:    1042.64 cm**-1
    23:    1061.79 cm**-1
    24:    1135.65 cm**-1
    25:    1171.39 cm**-1
    26:    1201.91 cm**-1
    27:    1264.43 cm**-1
    28:    1318.59 cm**-1
    29:    1365.30 cm**-1
    30:    1488.68 cm**-1
    31:    1504.72 cm**-1
    32:    1619.04 cm**-1
    33:    1625.23 cm**-1
    34:    3176.64 cm**-1
    35:    3186.78 cm**-1
    36:    3193.39 cm**-1
    37:    3202.33 cm**-1
    38:    3705.02 cm**-1

IR SPECTRUM
-----------

 Mode   freq       eps      Int      T**2         TX        TY        TZ
       cm**-1   L/(mol*cm) km/mol    a.u.
----------------------------------------------------------------------------
  6:    157.02   0.000054    0.27  0.000108  (-0.010330 -0.000531  0.000820)
  7:    249.26   0.001039    5.25  0.001301  ( 0.009628  0.030289 -0.017056)
  8:    265.10   0.000285    1.44  0.000336  (-0.018279  0.001285  0.000325)
  9:    374.66   0.005403   27.31  0.004500  (-0.062779 -0.006463  0.022746)
 10:    381.31   0.028924  146.17  0.023672  ( 0.153502 -0.009154  0.005046)
 11:    453.06   0.000721    3.64  0.000496  (-0.022207  0.001736  0.000470)
 12:    496.29   0.003793   19.17  0.002385  ( 0.001521 -0.048088 -0.008369)
 13:    554.88   0.000401    2.03  0.000226  (-0.014992  0.000852  0.000391)
 14:    564.49   0.001835    9.27  0.001014  (-0.001922 -0.027566 -0.015838)
 15:    682.53   0.009229   46.64  0.004220  ( 0.003230  0.043821  0.047843)
 16:    725.98   0.000093    0.47  0.000040  ( 0.006326 -0.000356 -0.000142)
 17:    761.12   0.024390  123.26  0.010000  (-0.099847  0.005043  0.002253)
 18:    841.99   0.005808   29.35  0.002153  (-0.001783 -0.041556  0.020559)
 19:    867.82   0.000324    1.64  0.000117  (-0.010779  0.000578  0.000290)
 20:    953.52   0.000973    4.92  0.000318  ( 0.017822 -0.000872 -0.000263)
 21:    979.82   0.000002    0.01  0.000001  (-0.000849 -0.000056  0.000099)
 22:   1042.64   0.016693   84.36  0.004996  (-0.003572 -0.055949 -0.043048)
 23:   1061.79   0.004137   20.91  0.001216  ( 0.000764  0.000943  0.034848)
 24:   1135.65   0.001048    5.30  0.000288  (-0.000930 -0.010677 -0.013161)
 25:   1171.39   0.001221    6.17  0.000325  (-0.000160 -0.010618  0.014577)
 26:   1201.91   0.051571  260.62  0.013390  (-0.003641 -0.104124  0.050348)
 27:   1264.43   0.022843  115.44  0.005638  ( 0.003452  0.074629 -0.007501)
 28:   1318.59   0.011774   59.50  0.002787  (-0.002861 -0.047388 -0.023081)
 29:   1365.30   0.005273   26.65  0.001205  ( 0.001038  0.031523 -0.014507)
 30:   1488.68   0.001504    7.60  0.000315  (-0.000350 -0.011913  0.013161)
 31:   1504.72   0.046534  235.17  0.009651  ( 0.005067  0.097125  0.013851)
 32:   1619.04   0.007205   36.41  0.001389  (-0.001603 -0.036467  0.007511)
 33:   1625.23   0.007916   40.00  0.001520  (-0.001639 -0.037465  0.010662)
 34:   3176.64   0.000452    2.28  0.000044  (-0.000325 -0.004361 -0.005024)
 35:   3186.78   0.001412    7.13  0.000138  (-0.000507 -0.011527  0.002266)
 36:   3193.39   0.001400    7.08  0.000137  ( 0.000340  0.002051  0.011511)
 37:   3202.33   0.000993    5.02  0.000097  ( 0.000502  0.009565  0.002247)
 38:   3705.02   0.038459  194.35  0.003239  ( 0.002835  0.035868  0.044099)

--------------------------
THERMOCHEMISTRY AT 298.15K
--------------------------

Temperature         ...   298.15 K
Pressure            ...     1.00 atm
Total Mass          ...   128.56 AMU
Quasi RRHO          ...     True
Cut-Off Frequency   ...     1.00 cm^-1

Throughout the following assumptions are being made:
  (1) The electronic state is orbitally nondegenerate
  (2) There are no thermally accessible electronically excited states
  (3) Hindered rotations indicated by low frequency modes are not
      treated as such but are treated as vibrations and this may
      cause some error
  (4) All equations used are the standard statistical mechanics
      equations for an ideal gas
  (5) All vibrations are strictly harmonic

freq.     157.02  E(vib)   ...       0.40
freq.     249.26  E(vib)   ...       0.31
freq.     265.10  E(vib)   ...       0.29
freq.     374.66  E(vib)   ...       0.21
freq.     381.31  E(vib)   ...       0.21
freq.     453.06  E(vib)   ...       0.16
freq.     496.29  E(vib)   ...       0.14
freq.     554.88  E(vib)   ...       0.12
freq.     564.49  E(vib)   ...       0.11
freq.     682.53  E(vib)   ...       0.08
freq.     725.98  E(vib)   ...       0.06
freq.     761.12  E(vib)   ...       0.06
freq.     841.99  E(vib)   ...       0.04
freq.     867.82  E(vib)   ...       0.04
freq.     953.52  E(vib)   ...       0.03
freq.     979.82  E(vib)   ...       0.02
freq.    1042.64  E(vib)   ...       0.02
freq.    1061.79  E(vib)   ...       0.02
freq.    1135.65  E(vib)   ...       0.01
freq.    1171.39  E(vib)   ...       0.01
freq.    1201.91  E(vib)   ...       0.01
freq.    1264.43  E(vib)   ...       0.01
freq.    1318.59  E(vib)   ...       0.01
freq.    1365.30  E(vib)   ...       0.01
freq.    1488.68  E(vib)   ...       0.00
freq.    1504.72  E(vib)   ...       0.00
freq.    1619.04  E(vib)   ...       0.00
freq.    1625.23  E(vib)   ...       0.00
freq.    3176.64  E(vib)   ...       0.00
freq.    3186.78  E(vib)   ...       0.00
freq.    3193.39  E(vib)   ...       0.00
freq.    3202.33  E(vib)   ...       0.00
freq.    3705.02  E(vib)   ...       0.00

------------
INNER ENERGY
------------

The inner energy is: U= E(el) + E(ZPE) + E(vib) + E(rot) + E(trans)
    E(el)   - is the total energy from the electronic structure calculation
              = E(kin-el) + E(nuc-el) + E(el-el) + E(nuc-nuc)
    E(ZPE)  - the the zero temperature vibrational energy from the frequency calculation
    E(vib)  - the the finite temperature correction to E(ZPE) due to population
              of excited vibrational states
    E(rot)  - is the rotational thermal energy
    E(trans)- is the translational thermal energy

Summary of contributions to the inner energy U:
Electronic energy                ...   -766.98091466 Eh
Zero point energy                ...      0.09470884 Eh      59.43 kcal/mol
Thermal vibrational correction   ...      0.00379254 Eh       2.38 kcal/mol
Thermal rotational correction    ...      0.00141627 Eh       0.89 kcal/mol
Thermal translational correction ...      0.00141627 Eh       0.89 kcal/mol
-----------------------------------------------------------------------
Total thermal energy                   -766.87958073 Eh

Summary of corrections to the electronic energy:
(perhaps to be used in another calculation)
Total thermal correction                  0.00662508 Eh       4.16 kcal/mol
Non-thermal (ZPE) correction              0.09470884 Eh      59.43 kcal/mol
-----------------------------------------------------------------------
Total correction                          0.10133392 Eh      63.59 kcal/mol

--------
ENTHALPY
--------

The enthalpy is H = U + kB*T
                kB is Boltzmann's constant
Total thermal energy              ...   -766.87958073 Eh
Thermal Enthalpy correction       ...      0.00094421 Eh       0.59 kcal/mol
-----------------------------------------------------------------------
Total Enthalpy                    ...   -766.87863653 Eh

Note: Only C1 symmetry has been detected, increase convergence thresholds
      if your molecule has a higher symmetry. Symmetry factor of 1.0 is
      used for the rotational entropy correction.

Note: Rotational entropy computed according to Herzberg
Infrared and Raman Spectra, Chapter V,1, Van Nostrand Reinhold, 1945
Point Group:  C1, Symmetry Number:   1
Rotational constants in cm-1:     0.099288     0.051110     0.033741

Vibrational entropy computed according to the QRRHO of S. Grimme
Chem.Eur.J. 2012 18 9955 using a reference frequency of 100.0 cm-1

-------
ENTROPY
-------

The entropy contributions are T*S = T*(S(el)+S(vib)+S(rot)+S(trans))
     S(el)   - electronic entropy
     S(vib)  - vibrational entropy
     S(rot)  - rotational entropy
     S(trans)- translational entropy
The entropies will be listed as multiplied by the temperature to get
units of energy

Electronic entropy                ...      0.00000000 Eh      0.00 kcal/mol
Vibrational entropy               ...      0.00586543 Eh      3.68 kcal/mol
Rotational entropy                ...      0.01360503 Eh      8.54 kcal/mol
Translational entropy             ...      0.01922702 Eh     12.07 kcal/mol
-----------------------------------------------------------------------
Final entropy term                ...      0.03869748 Eh     24.28 kcal/mol

In case the symmetry of your molecule has not been determined correctly
or in case you have a reason to use a different symmetry number we print
out the resulting rotational entropy values for sn=1,12:

 non-linear molecules -----------------------------------
|  sn= 1 | S(rot)=       0.01360503 Eh      8.54 kcal/mol|
|  sn= 2 | S(rot)=       0.01295058 Eh      8.13 kcal/mol|
|  sn= 3 | S(rot)=       0.01256774 Eh      7.89 kcal/mol|
|  sn= 4 | S(rot)=       0.01229612 Eh      7.72 kcal/mol|
|  sn= 5 | S(rot)=       0.01208543 Eh      7.58 kcal/mol|
|  sn= 6 | S(rot)=       0.01191329 Eh      7.48 kcal/mol|
|  sn= 7 | S(rot)=       0.01176774 Eh      7.38 kcal/mol|
|  sn= 8 | S(rot)=       0.01164166 Eh      7.31 kcal/mol|
|  sn= 9 | S(rot)=       0.01153046 Eh      7.24 kcal/mol|
|  sn=10 | S(rot)=       0.01143098 Eh      7.17 kcal/mol|
|  sn=11 | S(rot)=       0.01134099 Eh      7.12 kcal/mol|
|  sn=12 | S(rot)=       0.01125883 Eh      7.07 kcal/mol|
 linear molecules ---------------------------------------
|  Dinfh | S(rot)=       0.00852567 Eh      5.35 kcal/mol|
|  Cinfv | S(rot)=       0.00918012 Eh      5.76 kcal/mol|
 --------------------------------------------------------

-------------------
GIBBS FREE ENERGY
-------------------

The Gibbs free energy is G = H - T*S

Total enthalpy                    ...   -766.87863653 Eh
Total entropy correction          ...     -0.03869748 Eh    -24.28 kcal/mol
-----------------------------------------------------------------------

                             ****ORCA TERMINATED NORMALLY****
TOTAL RUN TIME: 0 days 0 hours 5 minutes 33 seconds 446 msec
