                         Program Version 6.1.0  -  RELEASE   -
|  1> ! UKS PBE def2-TZVP RIJCOSX def2/J Opt Freq TightSCF
|  2>
|  3> %pal
|  4>   nprocs 16
|  5> end
|  6> %maxcore 1500
|  7>
|  8> %scf
|  9>   MaxIter   1000
| 10> end
| 11>
| 12> %output
| 13>   Print[P_Mulliken] 1
| 14>   Print[P_Loewdin] 1
| 15>   XYZFile true
| 16> end
| 17>
| 18>
| 19> * xyz 0 1
| 20> C      0.02296308   -1.85996995    0.00000000
| 21> C      0.00798067   -1.16244008    1.20816295
| 22> C     -0.02331454    0.23192082    1.20824560
| 23> C     -0.03844324    0.92941901    0.00000000
| 24> C     -0.02331454    0.23192082   -1.20824560
| 25> C      0.00798067   -1.16244008   -1.20816295
| 26> H      0.04718689   -2.95931340    0.00000000
| 27> H      0.01953870   -1.71237863    2.16035820
| 28> H     -0.03575925    0.78177634   -2.16050635
| 29> H      0.01953870   -1.71237863   -2.16035820
| 30> O     -0.07045338    2.35906064    0.00000000
| 31> H      0.82708134    2.69969202    0.00000000
| 32> Cl    -0.04323187    1.11194551    2.73230591
| 33> *
| 34>
| 35>
| 36>                          ****END OF INPUT****
 Total Charge           Charge          ....    0
 Multiplicity           Mult            ....    1
 Number of Electrons    NEL             ....   66
FINAL SINGLE POINT ENERGY      -766.630071623096
FINAL SINGLE POINT ENERGY      -766.632262052229
FINAL SINGLE POINT ENERGY      -766.633051801464
FINAL SINGLE POINT ENERGY      -766.634234721086
FINAL SINGLE POINT ENERGY      -766.635447457199
FINAL SINGLE POINT ENERGY      -766.636860556039
FINAL SINGLE POINT ENERGY      -766.638374593271
FINAL SINGLE POINT ENERGY      -766.639894193137
FINAL SINGLE POINT ENERGY      -766.641497120252
FINAL SINGLE POINT ENERGY      -766.643321433237
FINAL SINGLE POINT ENERGY      -766.644224288985
FINAL SINGLE POINT ENERGY      -766.644355866936
FINAL SINGLE POINT ENERGY      -766.644368426247
FINAL SINGLE POINT ENERGY      -766.644370084321
                    ***********************HURRAY********************

CARTESIAN COORDINATES (ANGSTROEM)
---------------------------------
  C     -0.027058   -1.862147    0.003039
  C      0.036724   -1.122079    1.184528
  C      0.101890    0.267427    1.119075
  C      0.105233    0.945354   -0.112955
  C      0.040592    0.188843   -1.289823
  C     -0.024896   -1.201392   -1.229051
  H     -0.078235   -2.950172    0.049555
  H      0.036361   -1.612805    2.158020
  H      0.043083    0.718627   -2.243313
  H     -0.074825   -1.774614   -2.155972
  O      0.168425    2.299236   -0.202073
  H      0.207761    2.649978    0.712329
  Cl     0.182698    1.230558    2.578440

 Multiplicity           Mult            ....    1
 Number of Electrons    NEL             ....   66
 Basis Dimension        Dim             ....  284

ORBITAL ENERGIES
----------------
                 SPIN UP ORBITALS
  NO   OCC          E(Eh)            E(eV)
   0   1.0000    -100.680690     -2739.6608
   1   1.0000     -18.792142      -511.3602
   2   1.0000      -9.961047      -271.0539
   3   1.0000      -9.950980      -270.7799
   4   1.0000      -9.904178      -269.5064
   5   1.0000      -9.897745      -269.3313
   6   1.0000      -9.895554      -269.2717
   7   1.0000      -9.893947      -269.2280
   8   1.0000      -9.194167      -250.1860
   9   1.0000      -7.017279      -190.9499
  10   1.0000      -7.007544      -190.6850
  11   1.0000      -7.007333      -190.6792
  12   1.0000      -0.987598       -26.8739
  13   1.0000      -0.819223       -22.2922
  14   1.0000      -0.771276       -20.9875
  15   1.0000      -0.686403       -18.6780
  16   1.0000      -0.668508       -18.1910
  17   1.0000      -0.568313       -15.4646
  18   1.0000      -0.559679       -15.2296
  19   1.0000      -0.502981       -13.6868
  20   1.0000      -0.461282       -12.5521
  21   1.0000      -0.432595       -11.7715
  22   1.0000      -0.406098       -11.0505
  23   1.0000      -0.391817       -10.6619
  24   1.0000      -0.388154       -10.5622
  25   1.0000      -0.357466        -9.7272
  26   1.0000      -0.338660        -9.2154
  27   1.0000      -0.324515        -8.8305
  28   1.0000      -0.313821        -8.5395
  29   1.0000      -0.304248        -8.2790
  30   1.0000      -0.294228        -8.0063
  31   1.0000      -0.233411        -6.3514
  32   1.0000      -0.208567        -5.6754
  33   0.0000      -0.054756        -1.4900
  34   0.0000      -0.039303        -1.0695
  35   0.0000      -0.021629        -0.5886
  36   0.0000       0.020366         0.5542
  37   0.0000       0.038782         1.0553

                 SPIN DOWN ORBITALS
  NO   OCC          E(Eh)            E(eV)
   0   1.0000    -100.680690     -2739.6608
   1   1.0000     -18.792142      -511.3602
   2   1.0000      -9.961047      -271.0539
   3   1.0000      -9.950980      -270.7799
   4   1.0000      -9.904178      -269.5064
   5   1.0000      -9.897745      -269.3313
   6   1.0000      -9.895554      -269.2717
   7   1.0000      -9.893947      -269.2280
   8   1.0000      -9.194167      -250.1860
   9   1.0000      -7.017279      -190.9499
  10   1.0000      -7.007544      -190.6850
  11   1.0000      -7.007333      -190.6792
  12   1.0000      -0.987598       -26.8739
  13   1.0000      -0.819223       -22.2922
  14   1.0000      -0.771276       -20.9875
  15   1.0000      -0.686403       -18.6780
  16   1.0000      -0.668508       -18.1910
  17   1.0000      -0.568313       -15.4646
  18   1.0000      -0.559679       -15.2296
  19   1.0000      -0.502981       -13.6868
  20   1.0000      -0.461282       -12.5521
  21   1.0000      -0.432595       -11.7715
  22   1.0000      -0.406098       -11.0505
  23   1.0000      -0.391817       -10.6619
  24   1.0000      -0.388154       -10.5622
  25   1.0000      -0.357466        -9.7272
  26   1.0000      -0.338660        -9.2154
  27   1.0000      -0.324515        -8.8305
  28   1.0000      -0.313821        -8.5395
  29   1.0000      -0.304248        -8.2790
  30   1.0000      -0.294228        -8.0063
  31   1.0000      -0.233411        -6.3514
  32   1.0000      -0.208567        -5.6754
  33   0.0000      -0.054756        -1.4900
  34   0.0000      -0.039303        -1.0695
  35   0.0000      -0.021629        -0.5886
  36   0.0000       0.020366         0.5542
  37   0.0000       0.038782         1.0553

MULLIKEN ATOMIC CHARGES AND SPIN POPULATIONS
--------------------------------------------
   0 C :   -0.116357    0.000000
   1 C :   -0.172642    0.000000
   2 C :    0.146326    0.000000
   3 C :    0.141940    0.000000
   4 C :   -0.192877    0.000000
   5 C :   -0.086831    0.000000
   6 H :    0.105198    0.000000
   7 H :    0.117306    0.000000
   8 H :    0.108909    0.000000
   9 H :    0.105091    0.000000
  10 O :   -0.321516    0.000000
  11 H :    0.297428    0.000000
  12 Cl:   -0.131974    0.000000
Sum of atomic charges         :    0.0000000

LOEWDIN ATOMIC CHARGES AND SPIN POPULATIONS
-------------------------------------------
   0 C :   -0.154504    0.000000
   1 C :   -0.148681    0.000000
   2 C :   -0.416665    0.000000
   3 C :   -0.295135    0.000000
   4 C :   -0.118097    0.000000
   5 C :   -0.141366    0.000000
   6 H :    0.146676    0.000000
   7 H :    0.150678    0.000000
   8 H :    0.153335    0.000000
   9 H :    0.147840    0.000000
  10 O :    0.109002    0.000000
  11 H :    0.176826    0.000000
  12 Cl:    0.390091    0.000000

  Mayer bond orders larger than 0.100000
B(  0-C ,  1-C ) :   1.4125 B(  0-C ,  5-C ) :   1.4005 B(  0-C ,  6-H ) :   0.9597
B(  1-C ,  2-C ) :   1.3401 B(  1-C ,  7-H ) :   0.9536 B(  2-C ,  3-C ) :   1.2397
B(  2-C , 12-Cl) :   0.8940 B(  3-C ,  4-C ) :   1.3836 B(  3-C , 10-O ) :   1.2463
B(  3-C , 12-Cl) :   0.1009 B(  4-C ,  5-C ) :   1.4376 B(  4-C ,  8-H ) :   0.9597
B(  5-C ,  9-H ) :   0.9636 B( 10-O , 11-H ) :   0.8473

FINAL SINGLE POINT ENERGY      -766.644370322234

DIPOLE MOMENT
-------------

Method             : SCF
Type of density    : Electron Density
Multiplicity       :   1
Irrep              :   0
Energy             :  -766.6443703222339536 Eh
Basis              : AO
                                X                 Y                 Z
Electronic contribution:      0.420429709       5.260147705       7.053749209
Nuclear contribution   :     -0.433433103      -5.553772295      -7.017574888
                        -----------------------------------------
Total Dipole Moment    :     -0.013003394      -0.293624590       0.036174321
                        -----------------------------------------
Magnitude (a.u.)       :      0.296130157
Magnitude (Debye)      :      0.752703040

VIBRATIONAL FREQUENCIES
-----------------------

Scaling factor for frequencies =  1.000000000  (already applied!)

     0:       0.00 cm**-1
     1:       0.00 cm**-1
     2:       0.00 cm**-1
     3:       0.00 cm**-1
     4:       0.00 cm**-1
     5:       0.00 cm**-1
     6:     154.50 cm**-1
     7:     245.59 cm**-1
     8:     255.63 cm**-1
     9:     365.97 cm**-1
    10:     429.76 cm**-1
    11:     477.13 cm**-1
    12:     484.63 cm**-1
    13:     532.58 cm**-1
    14:     546.29 cm**-1
    15:     669.86 cm**-1
    16:     688.21 cm**-1
    17:     727.14 cm**-1
    18:     823.90 cm**-1
    19:     824.37 cm**-1
    20:     887.56 cm**-1
    21:     907.65 cm**-1
    22:    1020.83 cm**-1
    23:    1033.35 cm**-1
    24:    1111.75 cm**-1
    25:    1143.26 cm**-1
    26:    1186.03 cm**-1
    27:    1248.79 cm**-1
    28:    1303.76 cm**-1
    29:    1364.81 cm**-1
    30:    1451.21 cm**-1
    31:    1468.41 cm**-1
    32:    1583.42 cm**-1
    33:    1593.08 cm**-1
    34:    3109.65 cm**-1
    35:    3121.75 cm**-1
    36:    3128.78 cm**-1
    37:    3136.92 cm**-1
    38:    3566.76 cm**-1

IR SPECTRUM
-----------

 Mode   freq       eps      Int      T**2         TX        TY        TZ
       cm**-1   L/(mol*cm) km/mol    a.u.
----------------------------------------------------------------------------
  6:    154.50   0.000000    0.00  0.000000  ( 0.000196 -0.000039 -0.000052)
  7:    245.59   0.000616    3.11  0.000782  ( 0.001187  0.024322 -0.013765)
  8:    255.63   0.000301    1.52  0.000368  (-0.019137  0.001235  0.000341)
  9:    365.97   0.000406    2.05  0.000346  (-0.000212 -0.010002  0.015679)
 10:    429.76   0.002331   11.78  0.001692  ( 0.041076 -0.002031 -0.000983)
 11:    477.13   0.013984   70.67  0.009146  (-0.095527  0.003950  0.002232)
 12:    484.63   0.002082   10.52  0.001341  (-0.000214 -0.036442 -0.003597)
 13:    532.58   0.000086    0.44  0.000050  (-0.007097  0.000297  0.000117)
 14:    546.29   0.000644    3.25  0.000368  (-0.000927 -0.016454 -0.009809)
 15:    669.86   0.004224   21.35  0.001968  ( 0.002215  0.029915  0.032680)
 16:    688.21   0.000004    0.02  0.000002  (-0.001292  0.000186  0.000140)
 17:    727.14   0.012856   64.97  0.005517  (-0.074170  0.003592  0.001794)
 18:    823.90   0.002041   10.31  0.000773  (-0.000764 -0.025225  0.011670)
 19:    824.37   0.000207    1.05  0.000078  (-0.008836 -0.000146  0.000503)
 20:    887.56   0.000588    2.97  0.000207  ( 0.014355 -0.000709 -0.000307)
 21:    907.65   0.000029    0.14  0.000010  (-0.003136  0.000121  0.000084)
 22:   1020.83   0.008181   41.34  0.002501  (-0.002602 -0.039193 -0.030951)
 23:   1033.35   0.001547    7.82  0.000467  ( 0.000594  0.001925  0.021517)
 24:   1111.75   0.001016    5.14  0.000285  (-0.000890 -0.014211 -0.009085)
 25:   1143.26   0.000116    0.58  0.000032  ( 0.000137  0.000150  0.005615)
 26:   1186.03   0.019540   98.75  0.005141  (-0.002200 -0.062761  0.034605)
 27:   1248.79   0.017989   90.91  0.004495  ( 0.002854  0.065691 -0.013111)
 28:   1303.76   0.002632   13.30  0.000630  (-0.001096 -0.011852 -0.022099)
 29:   1364.81   0.004699   23.75  0.001074  (-0.001552 -0.032723  0.001124)
 30:   1451.21   0.000984    4.97  0.000212  ( 0.000747  0.010378  0.010162)
 31:   1468.41   0.024575  124.19  0.005223  ( 0.003656  0.071679  0.008453)
 32:   1583.42   0.002410   12.18  0.000475  (-0.000994 -0.021684  0.001928)
 33:   1593.08   0.006722   33.97  0.001317  (-0.001484 -0.035101  0.009087)
 34:   3109.65   0.000354    1.79  0.000035  (-0.000252 -0.002552 -0.005376)
 35:   3121.75   0.000951    4.81  0.000095  (-0.000497 -0.009422 -0.002460)
 36:   3128.78   0.001055    5.33  0.000105  ( 0.000132 -0.002168  0.010023)
 37:   3136.92   0.000944    4.77  0.000094  ( 0.000490  0.009364  0.002457)
 38:   3566.76   0.015299   77.31  0.001339  ( 0.001637  0.018170  0.031713)

--------------------------
THERMOCHEMISTRY AT 298.15K
--------------------------

Temperature         ...   298.15 K
Pressure            ...     1.00 atm
Total Mass          ...   128.56 AMU
Quasi RRHO          ...     True
Cut-Off Frequency   ...     1.00 cm^-1

Throughout the following assumptions are being made:
  (1) The electronic state is orbitally nondegenerate
  (2) There are no thermally accessible electronically excited states
  (3) Hindered rotations indicated by low frequency modes are not
      treated as such but are treated as vibrations and this may
      cause some error
  (4) All equations used are the standard statistical mechanics
      equations for an ideal gas
  (5) All vibrations are strictly harmonic

freq.     154.50  E(vib)   ...       0.40
freq.     245.59  E(vib)   ...       0.31
freq.     255.63  E(vib)   ...       0.30
freq.     365.97  E(vib)   ...       0.22
freq.     429.76  E(vib)   ...       0.18
freq.     477.13  E(vib)   ...       0.15
freq.     484.63  E(vib)   ...       0.15
freq.     532.58  E(vib)   ...       0.13
freq.     546.29  E(vib)   ...       0.12
freq.     669.86  E(vib)   ...       0.08
freq.     688.21  E(vib)   ...       0.07
freq.     727.14  E(vib)   ...       0.06
freq.     823.90  E(vib)   ...       0.05
freq.     824.37  E(vib)   ...       0.04
freq.     887.56  E(vib)   ...       0.04
freq.     907.65  E(vib)   ...       0.03
freq.    1020.83  E(vib)   ...       0.02
freq.    1033.35  E(vib)   ...       0.02
freq.    1111.75  E(vib)   ...       0.01
freq.    1143.26  E(vib)   ...       0.01
freq.    1186.03  E(vib)   ...       0.01
freq.    1248.79  E(vib)   ...       0.01
freq.    1303.76  E(vib)   ...       0.01
freq.    1364.81  E(vib)   ...       0.01
freq.    1451.21  E(vib)   ...       0.00
freq.    1468.41  E(vib)   ...       0.00
freq.    1583.42  E(vib)   ...       0.00
freq.    1593.08  E(vib)   ...       0.00
freq.    3109.65  E(vib)   ...       0.00
freq.    3121.75  E(vib)   ...       0.00
freq.    3128.78  E(vib)   ...       0.00
freq.    3136.92  E(vib)   ...       0.00
freq.    3566.76  E(vib)   ...       0.00

------------
INNER ENERGY
------------

The inner energy is: U= E(el) + E(ZPE) + E(vib) + E(rot) + E(trans)
    E(el)   - is the total energy from the electronic structure calculation
              = E(kin-el) + E(nuc-el) + E(el-el) + E(nuc-nuc)
    E(ZPE)  - the the zero temperature vibrational energy from the frequency calculation
    E(vib)  - the the finite temperature correction to E(ZPE) due to population
              of excited vibrational states
    E(rot)  - is the rotational thermal energy
    E(trans)- is the translational thermal energy

Summary of contributions to the inner energy U:
Electronic energy                ...   -766.64437032 Eh
Zero point energy                ...      0.09247843 Eh      58.03 kcal/mol
Thermal vibrational correction   ...      0.00388133 Eh       2.44 kcal/mol
Thermal rotational correction    ...      0.00141627 Eh       0.89 kcal/mol
Thermal translational correction ...      0.00141627 Eh       0.89 kcal/mol
-----------------------------------------------------------------------
Total thermal energy                   -766.54517802 Eh

Summary of corrections to the electronic energy:
(perhaps to be used in another calculation)
Total thermal correction                  0.00671387 Eh       4.21 kcal/mol
Non-thermal (ZPE) correction              0.09247843 Eh      58.03 kcal/mol
-----------------------------------------------------------------------
Total correction                          0.09919230 Eh      62.24 kcal/mol

--------
ENTHALPY
--------

The enthalpy is H = U + kB*T
                kB is Boltzmann's constant
Total thermal energy              ...   -766.54517802 Eh
Thermal Enthalpy correction       ...      0.00094421 Eh       0.59 kcal/mol
-----------------------------------------------------------------------
Total Enthalpy                    ...   -766.54423382 Eh

Note: Only C1 symmetry has been detected, increase convergence thresholds
      if your molecule has a higher symmetry. Symmetry factor of 1.0 is
      used for the rotational entropy correction.

Note: Rotational entropy computed according to Herzberg
Infrared and Raman Spectra, Chapter V,1, Van Nostrand Reinhold, 1945
Point Group:  C1, Symmetry Number:   1
Rotational constants in cm-1:     0.099443     0.050921     0.033677

Vibrational entropy computed according to the QRRHO of S. Grimme
Chem.Eur.J. 2012 18 9955 using a reference frequency of 100.0 cm-1

-------
ENTROPY
-------

The entropy contributions are T*S = T*(S(el)+S(vib)+S(rot)+S(trans))
     S(el)   - electronic entropy
     S(vib)  - vibrational entropy
     S(rot)  - rotational entropy
     S(trans)- translational entropy
The entropies will be listed as multiplied by the temperature to get
units of energy

Electronic entropy                ...      0.00000000 Eh      0.00 kcal/mol
Vibrational entropy               ...      0.00599321 Eh      3.76 kcal/mol
Rotational entropy                ...      0.01360694 Eh      8.54 kcal/mol
Translational entropy             ...      0.01922702 Eh     12.07 kcal/mol
-----------------------------------------------------------------------
Final entropy term                ...      0.03882718 Eh     24.36 kcal/mol

In case the symmetry of your molecule has not been determined correctly
or in case you have a reason to use a different symmetry number we print
out the resulting rotational entropy values for sn=1,12:

 non-linear molecules -----------------------------------
|  sn= 1 | S(rot)=       0.01360694 Eh      8.54 kcal/mol|
|  sn= 2 | S(rot)=       0.01295249 Eh      8.13 kcal/mol|
|  sn= 3 | S(rot)=       0.01256965 Eh      7.89 kcal/mol|
|  sn= 4 | S(rot)=       0.01229803 Eh      7.72 kcal/mol|
|  sn= 5 | S(rot)=       0.01208734 Eh      7.58 kcal/mol|
|  sn= 6 | S(rot)=       0.01191520 Eh      7.48 kcal/mol|
|  sn= 7 | S(rot)=       0.01176965 Eh      7.39 kcal/mol|
|  sn= 8 | S(rot)=       0.01164357 Eh      7.31 kcal/mol|
|  sn= 9 | S(rot)=       0.01153237 Eh      7.24 kcal/mol|
|  sn=10 | S(rot)=       0.01143289 Eh      7.17 kcal/mol|
|  sn=11 | S(rot)=       0.01134290 Eh      7.12 kcal/mol|
|  sn=12 | S(rot)=       0.01126074 Eh      7.07 kcal/mol|
 linear molecules ---------------------------------------
|  Dinfh | S(rot)=       0.00852747 Eh      5.35 kcal/mol|
|  Cinfv | S(rot)=       0.00918193 Eh      5.76 kcal/mol|
 --------------------------------------------------------

-------------------
GIBBS FREE ENERGY
-------------------

The Gibbs free energy is G = H - T*S

Total enthalpy                    ...   -766.54423382 Eh
Total entropy correction          ...     -0.03882718 Eh    -24.36 kcal/mol
-----------------------------------------------------------------------

                             ****ORCA TERMINATED NORMALLY****
TOTAL RUN TIME: 0 days 0 hours 2 minutes 5 seconds 52 msec
